<UPF version="2.0.1">
  <PP_INFO>
    Generated using "atomic" code by A. Dal Corso  v.5.1.2
    Author: ADC
    Generation date: 30Jul2016
    Pseudopotential type: USPP
    Element: Ac
    Functional: PBE

    Suggested minimum cutoff for wavefunctions:  48. Ry
    Suggested minimum cutoff for charge density: 328. Ry
    The Pseudo was generated with a Scalar-Relativistic Calculation
    Local Potential by smoothing AE potential with Bessel fncs, cutoff radius:   2.2000
    Pseudopotential contains additional information for GIPAW reconstruction.

    Valence configuration: 
    nl pn  l   occ       Rcut    Rcut US       E pseu
    6S  1  0  2.00      1.400      1.700    -2.983103
    7S  2  0  2.00      1.400      1.700    -0.289928
    6P  2  1  6.00      1.600      2.200    -1.478837
    7P  3  1  0.00      1.600      2.200    -0.087042
    6D  3  2  1.00      1.600      2.200    -0.165507
    Generation configuration:
    6S  1  0  2.00      1.400      1.700    -2.983154
    7S  2  0  2.00      1.400      1.700    -0.289938
    6P  2  1  6.00      1.600      2.200    -1.478871
    7P  3  1  0.00      1.600      2.200    -0.087046
    6D  3  2  1.00      1.600      2.200    -0.165522
    6D  3  2 -2.00      1.600      2.200     4.800000
    5F  4  3  0.00      1.300      1.800     0.100000
    5F  4  3 -2.00      1.300      1.800    -0.700000

    Pseudization used: troullier-martins
<PP_INPUTFILE>
 &input
   title='Ac',
   zed=89.0,
   rel=1,
   config='[Rn] 6d1.0 7s2.0 7p0. 5f0',
   iswitch=3,
   dft='PBE'
 /
 &inputp
   lpaw=.false.,
   pseudotype=3,
   file_pseudopw='Ac.pbe-spfn-rrkjus_psl.1.0.0.UPF',
   author='ADC',
   lloc=-1,
   rcloc=2.2,
   which_augfun='PSQ',
   rmatch_augfun_nc=.true.,
   nlcc=.true.,
   new_core_ps=.true.,
   rcore=1.5,
   tm=.true.
 /
8
6S  1  0  2.00  0.00  1.40  1.70  0.0
7S  2  0  2.00  0.00  1.40  1.70  0.0
6P  2  1  6.00  0.00  1.60  2.20  0.0
7P  3  1  0.00  0.00  1.60  2.20  0.0
6D  3  2  1.00  0.00  1.60  2.20  0.0
6D  3  2 -2.00  4.80  1.60  2.20  0.0
5F  4  3  0.00  0.10  1.30  1.80  0.0
5F  4  3 -2.00 -0.70  1.30  1.80  0.0
</PP_INPUTFILE>
  </PP_INFO>
  <!--                               -->
  <!-- END OF HUMAN READABLE SECTION -->
  <!--                               -->
  <PP_HEADER generated='Generated using "atomic" code by A. Dal Corso  v.5.1.2'
             author="ADC"
             date="30Jul2016"
             comment=""
             element="Ac"
             pseudo_type="USPP"
             relativistic="scalar"
             is_ultrasoft="T"
             is_paw="F"
             is_coulomb="F"
             has_so="F"
             has_wfc="F"
             has_gipaw="T"
             paw_as_gipaw="F"
             core_correction="T"
             functional="PBE"
             z_valence="1.100000000000000E+001"
             total_psenergy="-9.372410462005053E+001"
             wfc_cutoff="4.841069098392482E+001"
             rho_cutoff="3.281358290277192E+002"
             l_max="3"
             l_max_rho="6"
             l_local="-1"
             mesh_size="1289"
             number_of_wfc="5"
             number_of_proj="8"/>
  <PP_MESH dx="1.250000000000000E-002" mesh="1289" xmin="-7.000000000000000E+000" rmax="1.000000000000000E+002"
zmesh="8.900000000000000E+001">
    <PP_R type="real" size="1289" columns="4">
 1.024586478151142E-005  1.037474189515755E-005  1.050524008333238E-005  1.063737973664330E-005 
 1.077118150218000E-005  1.090666628674055E-005  1.104385526009819E-005  1.118276985830911E-005 
 1.132343178706192E-005  1.146586302506915E-005  1.161008582750154E-005  1.175612272946538E-005 
 1.190399654952371E-005  1.205373039326176E-005  1.220534765689728E-005  1.235887203093616E-005 
 1.251432750387419E-005  1.267173836594531E-005  1.283112921291694E-005  1.299252494993323E-005 
 1.315595079540645E-005  1.332143228495745E-005  1.348899527540563E-005  1.365866594880915E-005 
 1.383047081655597E-005  1.400443672350617E-005  1.418059085218668E-005  1.435896072703848E-005 
 1.453957421871739E-005  1.472245954844899E-005  1.490764529243811E-005  1.509516038633401E-005 
 1.528503412975162E-005  1.547729619084963E-005  1.567197661096628E-005  1.586910580931328E-005 
 1.606871458772893E-005  1.627083413549096E-005  1.647549603418992E-005  1.668273226266390E-005 
 1.689257520199520E-005  1.710505764057002E-005  1.732021277920169E-005  1.753807423631834E-005 
 1.775867605321592E-005  1.798205269937713E-005  1.820823907785738E-005  1.843727053073849E-005 
 1.866918284465094E-005  1.890401225636563E-005  1.914179545845589E-005  1.938256960503081E-005 
 1.962637231754067E-005  1.987324169065529E-005  2.012321629821651E-005  2.037633519926534E-005 
 2.063263794414502E-005  2.089216458068091E-005  2.115495566043795E-005  2.142105224505704E-005 
 2.169049591267089E-005  2.196332876440075E-005  2.223959343093480E-005  2.251933307918920E-005 
 2.280259141905319E-005  2.308941271021864E-005  2.337984176909583E-005  2.367392397581611E-005 
 2.397170528132256E-005  2.427323221455005E-005  2.457855188969534E-005  2.488771201357884E-005 
 2.520076089309891E-005  2.551774744277985E-005  2.583872119241501E-005  2.616373229480577E-005 
 2.649283153359812E-005  2.682607033121768E-005  2.716350075690453E-005  2.750517553484925E-005 
 2.785114805243099E-005  2.820147236855953E-005  2.855620322212200E-005  2.891539604053595E-005 
 2.927910694841009E-005  2.964739277631372E-005  3.002031106965675E-005  3.039792009768120E-005 
 3.078027886256594E-005  3.116744710864594E-005  3.155948533174733E-005  3.195645478864009E-005 
 3.235841750660947E-005  3.276543629314795E-005  3.317757474576906E-005  3.359489726194450E-005 
 3.401746904916647E-005  3.444535613513644E-005  3.487862537808212E-005  3.531734447720428E-005 
 3.576158198325468E-005  3.621140730924749E-005  3.666689074130504E-005  3.712810344964025E-005 
 3.759511749967721E-005  3.806800586331136E-005  3.854684243031163E-005  3.903170201986577E-005 
 3.952266039227111E-005  4.001979426077224E-005  4.052318130354753E-005  4.103290017584656E-005 
 4.154903052228014E-005  4.207165298926495E-005  4.260084923762481E-005  4.313670195535015E-005 
 4.367929487051832E-005  4.422871276437622E-005  4.478504148458753E-005  4.534836795864672E-005 
 4.591878020746143E-005  4.649636735910603E-005  4.708121966274809E-005  4.767342850274989E-005 
 4.827308641294764E-005  4.888028709110976E-005  4.949512541357759E-005  5.011769745008990E-005 
 5.074810047879400E-005  5.138643300144577E-005  5.203279475880051E-005  5.268728674619788E-005 
 5.335001122934244E-005  5.402107176028298E-005  5.470057319359284E-005  5.538862170275339E-005 
 5.608532479674401E-005  5.679079133684061E-005  5.750513155362530E-005  5.822845706421039E-005 
 5.896088088967848E-005  5.970251747274242E-005  6.045348269562719E-005  6.121389389817668E-005 
 6.198386989618844E-005  6.276353099997864E-005  6.355299903318099E-005  6.435239735178186E-005 
 6.516185086339485E-005  6.598148604677811E-005  6.681143097159657E-005  6.765181531843324E-005 
 6.850277039905212E-005  6.936442917691575E-005  7.023692628796137E-005  7.112039806163760E-005 
 7.201498254220655E-005  7.292081951031334E-005  7.383805050482711E-005  7.476681884495700E-005 
 7.570726965264570E-005  7.665954987524524E-005  7.762380830847789E-005  7.860019561968552E-005 
 7.958886437137219E-005  8.058996904504157E-005  8.160366606533586E-005  8.263011382447681E-005 
 8.366947270701504E-005  8.472190511489074E-005  8.578757549280856E-005  8.686665035393338E-005 
 8.795929830590757E-005  8.906569007719656E-005  9.018599854376585E-005  9.132039875609226E-005 
 9.246906796651719E-005  9.363218565694167E-005  9.480993356687113E-005  9.600249572181289E-005 
 9.721005846202960E-005  9.843281047165650E-005  9.967094280818268E-005  1.009246489323047E-004 
 1.021941247381553E-004  1.034795685839117E-004  1.047811813227902E-004  1.060991663344293E-004 
 1.074337295566686E-004  1.087850795177269E-004  1.101534273687846E-004  1.115389869169777E-004 
 1.129419746588043E-004  1.143626098139536E-004  1.158011143595590E-004  1.172577130648821E-004 
 1.187326335264343E-004  1.202261062035385E-004  1.217383644543388E-004  1.232696445722639E-004 
 1.248201858229473E-004  1.263902304816142E-004  1.279800238709368E-004  1.295898143993665E-004 
 1.312198535999489E-004  1.328703961696249E-004  1.345417000090295E-004  1.362340262627876E-004 
 1.379476393603195E-004  1.396828070571583E-004  1.414398004767865E-004  1.432188941530008E-004 
 1.450203660728076E-004  1.468444977198593E-004  1.486915741184375E-004  1.505618838779868E-004 
 1.524557192382127E-004  1.543733761147432E-004  1.563151541453665E-004  1.582813567368510E-004 
 1.602722911123512E-004  1.622882683594144E-004  1.643296034785868E-004  1.663966154326337E-004 
 1.684896271963788E-004  1.706089658071679E-004  1.727549624159711E-004  1.749279523391246E-004 
 1.771282751107246E-004  1.793562745356811E-004  1.816122987434368E-004  1.838967002423644E-004 
 1.862098359748456E-004  1.885520673730445E-004  1.909237604153830E-004  1.933252856837234E-004 
 1.957570184212755E-004  1.982193385912266E-004  2.007126309361127E-004  2.032372850379361E-004 
 2.057936953790357E-004  2.083822614037291E-004  2.110033875807237E-004  2.136574834663175E-004 
 2.163449637683925E-004  2.190662484112134E-004  2.218217626010425E-004  2.246119368925779E-004 
 2.274372072562291E-004  2.302980151462388E-004  2.331948075696600E-004  2.361280371562026E-004 
 2.390981622289570E-004  2.421056468760087E-004  2.451509610229525E-004  2.482345805063196E-004 
 2.513569871479281E-004  2.545186688301682E-004  2.577201195722352E-004  2.609618396073210E-004 
 2.642443354607765E-004  2.675681200292571E-004  2.709337126608638E-004  2.743416392362925E-004 
 2.777924322510045E-004  2.812866308984286E-004  2.848247811542129E-004  2.884074358615330E-004 
 2.920351548174758E-004  2.957085048605091E-004  2.994280599590504E-004  3.031944013011515E-004 
 3.070081173853098E-004  3.108698041124222E-004  3.147800648788969E-004  3.187395106709337E-004 
 3.227487601599936E-004  3.268084397994660E-004  3.309191839225538E-004  3.350816348413900E-004 
 3.392964429473989E-004  3.435642668129224E-004  3.478857732941224E-004  3.522616376351785E-004 
 3.566925435737972E-004  3.611791834480457E-004  3.657222583045329E-004  3.703224780079479E-004 
 3.749805613519784E-004  3.796972361716242E-004  3.844732394569217E-004  3.893093174681014E-004 
 3.942062258521915E-004  3.991647297610895E-004  4.041856039711199E-004  4.092696330040925E-004 
 4.144176112498878E-004  4.196303430905800E-004  4.249086430261245E-004  4.302533358016254E-004 
 4.356652565362023E-004  4.411452508534811E-004  4.466941750137227E-004  4.523128960476163E-004 
 4.580022918917553E-004  4.637632515258152E-004  4.695966751114598E-004  4.755034741329923E-004 
 4.814845715397774E-004  4.875409018904537E-004  4.936734114989598E-004  4.998830585823991E-004 
 5.061708134107620E-004  5.125376584585327E-004  5.189845885582036E-004  5.255126110557188E-004 
 5.321227459678756E-004  5.388160261417020E-004  5.455934974158424E-004  5.524562187839728E-004 
 5.594052625602690E-004  5.664417145469592E-004  5.735666742039822E-004  5.807812548207799E-004 
 5.880865836902514E-004  5.954838022848967E-004  6.029740664351700E-004  6.105585465100842E-004 
 6.182384276000815E-004  6.260149097022067E-004  6.338892079076107E-004  6.418625525914077E-004 
 6.499361896049267E-004  6.581113804703771E-004  6.663894025779631E-004  6.747715493854825E-004 
 6.832591306204267E-004  6.918534724846319E-004  7.005559178614995E-004  7.093678265258245E-004 
 7.182905753562648E-004  7.273255585504781E-004  7.364741878429703E-004  7.457378927256814E-004 
 7.551181206713456E-004  7.646163373596651E-004  7.742340269063212E-004  7.839726920948727E-004 
 7.938338546115688E-004  8.038190552831148E-004  8.139298543174321E-004  8.241678315474397E-004 
 8.345345866779090E-004  8.450317395354205E-004  8.556609303214643E-004  8.664238198687271E-004 
 8.773220899005974E-004  8.883574432939403E-004  8.995316043451751E-004  9.108463190396993E-004 
 9.223033553247056E-004  9.339045033854220E-004  9.456515759248360E-004  9.575464084469312E-004 
 9.695908595434887E-004  9.817868111844988E-004  9.941361690122170E-004  1.006640862638929E-003 
 1.019302845948456E-003  1.032124097401448E-003  1.045106620344534E-003  1.058252443323334E-003 
 1.071563620399434E-003  1.085042231471336E-003  1.098690382599439E-003  1.112510206335127E-003 
 1.126503862053975E-003  1.140673536293158E-003  1.155021443093106E-003  1.169549824343445E-003 
 1.184260950133307E-003  1.199157119106025E-003  1.214240658818307E-003  1.229513926103921E-003 
 1.244979307441955E-003  1.260639219329705E-003  1.276496108660267E-003  1.292552453104859E-003 
 1.308810761499966E-003  1.325273574239355E-003  1.341943463671007E-003  1.358823034499064E-003 
 1.375914924190808E-003  1.393221803388779E-003  1.410746376328060E-003  1.428491381258827E-003 
 1.446459590874205E-003  1.464653812743502E-003  1.483076889750902E-003  1.501731700539669E-003 
 1.520621159961940E-003  1.539748219534185E-003  1.559115867898374E-003  1.578727131288968E-003 
 1.598585074005772E-003  1.618692798892733E-003  1.639053447822780E-003  1.659670202188729E-003 
 1.680546283400395E-003  1.701684953387940E-003  1.723089515111556E-003  1.744763313077562E-003 
 1.766709733860985E-003  1.788932206634723E-003  1.811434203705358E-003  1.834219241055712E-003 
 1.857290878894231E-003  1.880652722211265E-003  1.904308421342362E-003  1.928261672538639E-003 
 1.952516218544327E-003  1.977075849181590E-003  2.001944401942680E-003  2.027125762589560E-003 
 2.052623865761065E-003  2.078442695587688E-003  2.104586286314124E-003  2.131058722929610E-003 
 2.157864141806227E-003  2.185006731345210E-003  2.212490732631394E-003  2.240320440095901E-003 
 2.268500202187140E-003  2.297034422050271E-003  2.325927558215200E-003  2.355184125293234E-003 
 2.384808694682507E-003  2.414805895282254E-003  2.445180414216101E-003  2.475936997564427E-003 
 2.507080451105953E-003  2.538615641068662E-003  2.570547494890140E-003  2.602881001987516E-003 
 2.635621214537054E-003  2.668773248263574E-003  2.702342283239800E-003  2.736333564695739E-003 
 2.770752403838276E-003  2.805604178681053E-003  2.840894334884792E-003  2.876628386608203E-003 
 2.912811917369569E-003  2.949450580919184E-003  2.986550102122773E-003  3.024116277855998E-003 
 3.062154977910255E-003  3.100672145909811E-003  3.139673800240533E-003  3.179166034990259E-003 
 3.219155020901012E-003  3.259647006333207E-003  3.300648318241943E-003  3.342165363165626E-003 
 3.384204628226992E-003  3.426772682146733E-003  3.469876176269886E-003  3.513521845605100E-003 
 3.557716509877004E-003  3.602467074591808E-003  3.647780532116289E-003  3.693663962770384E-003 
 3.740124535933480E-003  3.787169511164657E-003  3.834806239337010E-003  3.883042163786230E-003 
 3.931884821473657E-003  3.981341844163920E-003  4.031420959617436E-003  4.082129992797882E-003 
 4.133476867094857E-003  4.185469605561944E-003  4.238116332170304E-003  4.291425273078080E-003 
 4.345404757915747E-003  4.400063221087629E-003  4.455409203089808E-003  4.511451351844570E-003 
 4.568198424051678E-003  4.625659286556615E-003  4.683842917736049E-003  4.742758408900737E-003 
 4.802414965716032E-003  4.862821909640309E-003  4.923988679381455E-003  4.985924832371684E-003 
 5.048640046260918E-003  5.112144120428918E-003  5.176446977516473E-003  5.241558664975828E-003 
 5.307489356640615E-003  5.374249354315552E-003  5.441849089386097E-003  5.510299124448386E-003 
 5.579610154959661E-003  5.649793010909449E-003  5.720858658511790E-003  5.792818201918700E-003 
 5.865682884955240E-003  5.939464092876379E-003  6.014173354145958E-003  6.089822342238059E-003 
 6.166422877460973E-003  6.243986928804176E-003  6.322526615808496E-003  6.402054210459809E-003 
 6.482582139106593E-003  6.564122984401529E-003  6.646689487267589E-003  6.730294548888829E-003 
 6.814951232726218E-003  6.900672766558853E-003  6.987472544550791E-003  7.075364129343936E-003 
 7.164361254177233E-003  7.254477825032495E-003  7.345727922807274E-003  7.438125805514991E-003 
 7.531685910512806E-003  7.626422856757470E-003  7.722351447089576E-003  7.819486670546541E-003 
 7.917843704704648E-003  8.017437918050594E-003  8.118284872382839E-003  8.220400325243167E-003 
 8.323800232378853E-003  8.428500750235754E-003  8.534518238482797E-003  8.641869262568214E-003 
 8.750570596307921E-003  8.860639224506481E-003  8.972092345610980E-003  9.084947374398347E-003 
 9.199221944696433E-003  9.314933912139330E-003  9.432101356957387E-003  9.550742586802229E-003 
 9.670876139607397E-003  9.792520786484927E-003  9.915695534658375E-003  1.004041963043276E-002 
 1.016671256220180E-002  1.029459406349301E-002  1.042408411605116E-002  1.055520295296040E-002 
 1.068797106180578E-002  1.082240918787441E-002  1.095853833739700E-002  1.109637978083014E-002 
 1.123595505617977E-002  1.137728597236668E-002  1.152039461263404E-002  1.166530333799804E-002 
 1.181203479074185E-002  1.196061189795347E-002  1.211105787510822E-002  1.226339622969609E-002 
 1.241765076489492E-002  1.257384558328968E-002  1.273200509063850E-002  1.289215399968621E-002 
 1.305431733402566E-002  1.321852043200777E-002  1.338478895070066E-002  1.355314886989866E-002 
 1.372362649618169E-002  1.389624846702568E-002  1.407104175496478E-002  1.424803367180585E-002 
 1.442725187289597E-002  1.460872436144372E-002  1.479247949289463E-002  1.497854597936184E-002 
 1.516695289411240E-002  1.535772967611007E-002  1.555090613461519E-002  1.574651245384240E-002 
 1.594457919767706E-002  1.614513731445085E-002  1.634821814177754E-002  1.655385341144961E-002 
 1.676207525439630E-002  1.697291620570419E-002  1.718640920970090E-002  1.740258762510262E-002 
 1.762148523022662E-002  1.784313622826903E-002  1.806757525264925E-002  1.829483737242147E-002 
 1.852495809775425E-002  1.875797338547914E-002  1.899391964470890E-002  1.923283374252658E-002 
 1.947475300974603E-002  1.971971524674493E-002  1.996775872937122E-002  2.021892221492370E-002 
 2.047324494820798E-002  2.073076666766855E-002  2.099152761159800E-002  2.125556852442438E-002 
 2.152293066307749E-002  2.179365580343545E-002  2.206778624685223E-002  2.234536482676732E-002 
 2.262643491539862E-002  2.291104043051928E-002  2.319922584232009E-002  2.349103618035794E-002 
 2.378651704059185E-002  2.408571459250741E-002  2.438867558633082E-002  2.469544736033374E-002 
 2.500607784822999E-002  2.532061558666527E-002  2.563910972280117E-002  2.596161002199443E-002 
 2.628816687557295E-002  2.661883130870946E-002  2.695365498839436E-002  2.729269023150886E-002 
 2.763599001299945E-002  2.798360797415542E-002  2.833559843099044E-002  2.869201638272952E-002 
 2.905291752040277E-002  2.941835823554721E-002  2.978839562901807E-002  3.016308751991092E-002 
 3.054249245459601E-002  3.092666971586637E-002  3.131567933220058E-002  3.170958208714269E-002 
 3.210843952879961E-002  3.251231397945799E-002  3.292126854532253E-002  3.333536712637605E-002 
 3.375467442636441E-002  3.417925596290636E-002  3.460917807773069E-002  3.504450794704264E-002 
 3.548531359201988E-002  3.593166388944129E-002  3.638362858244903E-002  3.684127829144577E-002 
 3.730468452512979E-002  3.777391969166776E-002  3.824905711000919E-002  3.873017102134244E-002 
 3.921733660069485E-002  3.971062996867947E-002  4.021012820338855E-002  4.071590935243754E-002 
 4.122805244516008E-002  4.174663750495623E-002  4.227174556179679E-002  4.280345866488384E-002 
 4.334185989547161E-002  4.388703337984780E-002  4.443906430247840E-002  4.499803891931831E-002 
 4.556404457128850E-002  4.613716969792372E-002  4.671750385119113E-002  4.730513770948270E-002 
 4.790016309178452E-002  4.850267297202297E-002  4.911276149359277E-002  4.973052398406672E-002 
 5.035605697009062E-002  5.098945819246638E-002  5.163082662142348E-002  5.228026247208391E-002 
 5.293786722012073E-002  5.360374361761351E-002  5.427799570910431E-002  5.496072884785400E-002 
 5.565204971230464E-002  5.635206632274790E-002  5.706088805820316E-002  5.777862567350889E-002 
 5.850539131662753E-002  5.924129854616954E-002  5.998646234913685E-002  6.074099915888952E-002 
 6.150502687333938E-002  6.227866487337105E-002  6.306203404149612E-002  6.385525678074098E-002 
 6.465845703377225E-002  6.547176030226382E-002  6.629529366650581E-002  6.712918580526205E-002 
 6.797356701587584E-002  6.882856923462906E-002  6.969432605735811E-002  7.057097276032771E-002 
 7.145864632136886E-002  7.235748544128162E-002  7.326763056550688E-002  7.418922390607230E-002 
 7.512240946381205E-002  7.606733305086824E-002  7.702414231347396E-002  7.799298675502288E-002 
 7.897401775943035E-002  7.996738861478649E-002  8.097325453730859E-002  8.199177269559367E-002 
 8.302310223517585E-002  8.406740430339422E-002  8.512484207457133E-002  8.619558077551043E-002 
 8.727978771131210E-002  8.837763229151564E-002  8.948928605657057E-002  9.061492270463904E-002 
 9.175471811873760E-002  9.290885039421881E-002  9.407749986659848E-002  9.526084913973462E-002 
 9.645908311435838E-002  9.767238901696632E-002  9.890095642907430E-002  1.001449773168397E-001 
 1.014046460610576E-001  1.026801594875318E-001  1.039717168978302E-001  1.052795201004262E-001 
 1.066037734422306E-001  1.079446838405226E-001  1.093024608152796E-001  1.106773165219166E-001 
 1.120694657844351E-001  1.134791261289894E-001  1.149065178178765E-001  1.163518638839516E-001 
 1.178153901654783E-001  1.192973253414158E-001  1.207979009671501E-001  1.223173515106758E-001 
 1.238559143892315E-001  1.254138300063974E-001  1.269913417896583E-001  1.285886962284396E-001 
 1.302061429126225E-001  1.318439345715417E-001  1.335023271134763E-001  1.351815796656353E-001 
 1.368819546146458E-001  1.386037176475536E-001  1.403471377933350E-001  1.421124874649351E-001 
 1.439000425018319E-001  1.457100822131363E-001  1.475428894212363E-001  1.493987505059864E-001 
 1.512779554494574E-001  1.531807978812445E-001  1.551075751243494E-001  1.570585882416365E-001 
 1.590341420828743E-001  1.610345453323702E-001  1.630601105572014E-001  1.651111542560555E-001 
 1.671879969086837E-001  1.692909630259752E-001  1.714203812006649E-001  1.735765841586744E-001 
 1.757599088111030E-001  1.779706963068700E-001  1.802092920860188E-001  1.824760459336950E-001 
 1.847713120347985E-001  1.870954490293275E-001  1.894488200684163E-001  1.918317928710771E-001 
 1.942447397816592E-001  1.966880378280257E-001  1.991620687804679E-001  2.016672192113557E-001 
 2.042038805555401E-001  2.067724491715177E-001  2.093733264033597E-001  2.120069186434257E-001 
 2.146736373958614E-001  2.173738993408968E-001  2.201081263999553E-001  2.228767458015768E-001 
 2.256801901481761E-001  2.285188974836363E-001  2.313933113617532E-001  2.343038809155442E-001 
 2.372510609274228E-001  2.402353119002623E-001  2.432571001293492E-001  2.463168977752413E-001 
 2.494151829375468E-001  2.525524397296250E-001  2.557291583542329E-001  2.589458351801191E-001 
 2.622029728195812E-001  2.655010802070028E-001  2.688406726783725E-001  2.722222720518088E-001 
 2.756464067090941E-001  2.791136116782342E-001  2.826244287170606E-001  2.861794063978775E-001 
 2.897791001931805E-001  2.934240725624493E-001  2.971148930400315E-001  3.008521383241366E-001 
 3.046363923669428E-001  3.084682464658438E-001  3.123482993558392E-001  3.162771573030860E-001 
 3.202554341996328E-001  3.242837516593375E-001  3.283627391149994E-001  3.324930339167076E-001 
 3.366752814314273E-001  3.409101351438422E-001  3.451982567584599E-001  3.495403163030074E-001 
 3.539369922331232E-001  3.583889715383652E-001  3.628969498495587E-001  3.674616315474851E-001 
 3.720837298729473E-001  3.767639670382131E-001  3.815030743398601E-001  3.863017922730475E-001 
 3.911608706472141E-001  3.960810687032420E-001  4.010631552320889E-001  4.061079086949094E-001 
 4.112161173446970E-001  4.163885793494449E-001  4.216261029168652E-001  4.269295064206720E-001 
 4.322996185284510E-001  4.377372783311463E-001  4.432433354741635E-001  4.488186502901341E-001 
 4.544640939333420E-001  4.601805485158404E-001  4.659689072452901E-001  4.718300745645170E-001 
 4.777649662928403E-001  4.837745097691681E-001  4.898596439968934E-001  4.960213197906212E-001 
 5.022604999247288E-001  5.085781592838063E-001  5.149752850149834E-001  5.214528766821682E-001 
 5.280119464222399E-001  5.346535191031877E-001  5.413786324842563E-001  5.481883373780950E-001 
 5.550836978149459E-001  5.620657912089080E-001  5.691357085262772E-001  5.762945544560192E-001 
 5.835434475823763E-001  5.908835205596455E-001  5.983159202891651E-001  6.058418080985120E-001 
 6.134623599229689E-001  6.211787664892638E-001  6.289922335016197E-001  6.369039818301558E-001 
 6.449152477016431E-001  6.530272828926740E-001  6.612413549252524E-001  6.695587472648425E-001 
 6.779807595209220E-001  6.865087076500379E-001  6.951439241614369E-001  7.038877583252687E-001 
 7.127415763834084E-001  7.217067617629432E-001  7.307847152923260E-001  7.399768554202663E-001 
 7.492846184373619E-001  7.587094587005185E-001  7.682528488602047E-001  7.779162800905466E-001 
 7.877012623223355E-001  7.976093244789543E-001  8.076420147152704E-001  8.178009006595477E-001 
 8.280875696583803E-001  8.385036290247293E-001  8.490507062890639E-001  8.597304494536617E-001 
 8.705445272501232E-001  8.814946294001028E-001  8.925824668793408E-001  9.038097721850035E-001 
 9.151782996063836E-001  9.266898254990238E-001  9.383461485622615E-001  9.501490901202921E-001 
 9.621004944067489E-001  9.742022288528641E-001  9.864561843792687E-001  9.988642756914419E-001 
 1.011428441578897E+000  1.024150645218117E+000  1.037032874479302E+000  1.050077142236986E+000 
 1.063285486684541E+000  1.076659971652661E+000  1.090202686931836E+000  1.103915748598877E+000 
 1.117801299347572E+000  1.131861508823473E+000  1.146098573962918E+000  1.160514719336302E+000 
 1.175112197495666E+000  1.189893289326674E+000  1.204860304404995E+000  1.220015581357186E+000 
 1.235361488226108E+000  1.250900422840925E+000  1.266634813191790E+000  1.282567117809203E+000 
 1.298699826148176E+000  1.315035458977212E+000  1.331576568772172E+000  1.348325740115119E+000 
 1.365285590098146E+000  1.382458768732321E+000  1.399847959361747E+000  1.417455879082833E+000 
 1.435285279168866E+000  1.453338945499876E+000  1.471619698997962E+000  1.490130396068052E+000 
 1.508873929044219E+000  1.527853226641630E+000  1.547071254414143E+000  1.566531015217699E+000 
 1.586235549679517E+000  1.606187936673191E+000  1.626391293799788E+000  1.646848777874957E+000 
 1.667563585422209E+000  1.688538953172371E+000  1.709778158569321E+000  1.731284520282123E+000 
 1.753061398723541E+000  1.775112196575140E+000  1.797440359318951E+000  1.820049375775824E+000 
 1.842942778650584E+000  1.866124145084001E+000  1.889597097211747E+000  1.913365302730350E+000 
 1.937432475470273E+000  1.961802375976230E+000  1.986478812094747E+000  2.011465639569176E+000 
 2.036766762642150E+000  2.062386134665618E+000  2.088327758718588E+000  2.114595688232590E+000 
 2.141194027625056E+000  2.168126932940636E+000  2.195398612500572E+000  2.223013327560289E+000 
 2.250975392975189E+000  2.279289177874886E+000  2.307959106345880E+000  2.336989658122816E+000 
 2.366385369288480E+000  2.396150832982540E+000  2.426290700119260E+000  2.456809680114204E+000 
 2.487712541620080E+000  2.519004113271880E+000  2.550689284441327E+000  2.582773006000886E+000 
 2.615260291097329E+000  2.648156215935041E+000  2.681465920569212E+000  2.715194609708953E+000 
 2.749347553530566E+000  2.783930088501015E+000  2.818947618211737E+000  2.854405614223003E+000 
 2.890309616918820E+000  2.926665236372660E+000  2.963478153224036E+000  3.000754119566091E+000 
 3.038498959844416E+000  3.076718571767085E+000  3.115418927226224E+000  3.154606073231118E+000 
 3.194286132853044E+000  3.234465306182060E+000  3.275149871295732E+000  3.316346185240138E+000 
 3.358060685023152E+000  3.400299888620223E+000  3.443070395992860E+000  3.486378890119847E+000 
 3.530232138041508E+000  3.574636991917057E+000  3.619600390095242E+000  3.665129358198520E+000 
 3.711231010220774E+000  3.757912549638933E+000  3.805181270538512E+000  3.853044558753308E+000 
 3.901509893019496E+000  3.950584846144144E+000  4.000277086188529E+000  4.050594377666267E+000 
 4.101544582756504E+000  4.153135662532463E+000  4.205375678205305E+000  4.258272792383770E+000 
 4.311835270349576E+000  4.366071481348863E+000  4.420989899899960E+000  4.476599107117482E+000 
 4.532907792053203E+000  4.589924753053714E+000  4.647658899135155E+000  4.706119251375330E+000 
 4.765314944323197E+000  4.825255227426224E+000  4.885949466475603E+000  4.947407145069651E+000 
 5.009637866095703E+000  5.072651353230511E+000  5.136457452459651E+000  5.201066133615950E+000 
 5.266487491937270E+000  5.332731749643965E+000  5.399809257536060E+000  5.467730496610643E+000 
 5.536506079699515E+000  5.606146753127438E+000  5.676663398391343E+000  5.748067033860496E+000 
 5.820368816498225E+000  5.893580043605174E+000  5.967712154584507E+000  6.042776732729409E+000 
 6.118785507032915E+000  6.195750354020660E+000  6.273683299606584E+000  6.352596520971969E+000 
 6.432502348468223E+000  6.513413267543443E+000  6.595341920693357E+000  6.678301109436721E+000 
 6.762303796315531E+000  6.847363106920541E+000  6.933492331942063E+000  7.020704929246752E+000 
 7.109014525980383E+000  7.198434920697088E+000  7.288980085515494E+000  7.380664168301795E+000 
 7.473501494880470E+000  7.567506571272690E+000  7.662694085962871E+000  7.759078912193869E+000 
 7.856676110290851E+000  7.955500930014599E+000  8.055568812944268E+000  8.156895394890128E+000 
 8.259496508336786E+000  8.363388184916932E+000  8.468586657916418E+000  8.575108364810692E+000 
 8.682969949833145E+000  8.792188266575916E+000  8.902780380623168E+000  9.014763572217742E+000 
 9.128155338961168E+000  9.242973398547667E+000  9.359235691532684E+000  9.476960384135994E+000 