<UPF version="2.0.1">
  <PP_INFO>
    Generated using "atomic" code by A. Dal Corso  v.5.1.2
    Author: ADC
    Generation date: 30Jul2016
    Pseudopotential type: USPP
    Element: Al
    Functional: PBE

    Suggested minimum cutoff for wavefunctions:  29. Ry
    Suggested minimum cutoff for charge density: 121. Ry
    The Pseudo was generated with a Scalar-Relativistic Calculation
    L component and cutoff radius for Local Potential:  2   1.9000
    Pseudopotential contains additional information for GIPAW reconstruction.

    Valence configuration: 
    nl pn  l   occ       Rcut    Rcut US       E pseu
    3S  1  0  2.00      1.500      1.900    -0.569826
    3P  2  1  1.00      1.500      1.900    -0.199337
    Generation configuration:
    3S  1  0  2.00      1.500      1.900    -0.569824
    3S  1  0  0.00      1.500      1.900     6.000000
    3P  2  1  1.00      1.500      1.900    -0.199338
    3P  2  1  0.00      1.500      1.900     3.500000
    3D  3  2  0.00      1.900      1.900     1.000000

    Pseudization used: troullier-martins
<PP_INPUTFILE>
 &input
   title='Al',
   zed=13.,
   rel=1,
   config='[Ne] 3s2 3p1 3d-1',
   iswitch=3,
   dft='PBE'
 /
 &inputp
   lpaw=.false.,
   pseudotype=3,
   file_pseudopw='Al.pbe-nl-rrkjus_psl.1.0.0.UPF',
   author='ADC',
   lloc=2,
   which_augfun='PSQ',
   rmatch_augfun_nc=.true.,
   nlcc=.true.,
   new_core_ps=.true.,
   rcore=1.8,
   tm=.true.
 /
5
3S  1  0  2.00  0.00  1.50  1.90  0.0
3S  1  0  0.00  6.00  1.50  1.90  0.0
3P  2  1  1.00  0.00  1.50  1.90  0.0
3P  2  1  0.00  3.50  1.50  1.90  0.0
3D  3  2  0.00  1.00  1.90  1.90  0.0
</PP_INPUTFILE>
  </PP_INFO>
  <!--                               -->
  <!-- END OF HUMAN READABLE SECTION -->
  <!--                               -->
  <PP_HEADER generated='Generated using "atomic" code by A. Dal Corso  v.5.1.2'
             author="ADC"
             date="30Jul2016"
             comment=""
             element="Al"
             pseudo_type="USPP"
             relativistic="scalar"
             is_ultrasoft="T"
             is_paw="F"
             is_coulomb="F"
             has_so="F"
             has_wfc="F"
             has_gipaw="T"
             paw_as_gipaw="F"
             core_correction="T"
             functional="PBE"
             z_valence="3.000000000000000E+000"
             total_psenergy="-4.763686820556712E+000"
             wfc_cutoff="2.853171158827985E+001"
             rho_cutoff="1.205573411680695E+002"
             l_max="2"
             l_max_rho="4"
             l_local="2"
             mesh_size="1135"
             number_of_wfc="2"
             number_of_proj="4"/>
  <PP_MESH dx="1.250000000000000E-002" mesh="1135" xmin="-7.000000000000000E+000" rmax="1.000000000000000E+002"
zmesh="1.300000000000000E+001">
    <PP_R type="real" size="1135" columns="4">
 7.014476658111663E-005  7.102707912838632E-005  7.192048980127555E-005  7.282513819701954E-005 
 7.374116566877076E-005  7.466871534768530E-005  7.560793216528758E-005  7.655896287611625E-005 
 7.752195608065465E-005  7.849706224855035E-005  7.948443374212593E-005  8.048422484018604E-005 
 8.149659176212386E-005  8.252169269233053E-005  8.355968780491215E-005  8.461073928871678E-005 
 8.567501137267717E-005  8.675267035147172E-005  8.784388461150826E-005  8.894882465723522E-005 
 9.006766313778265E-005  9.120057487393945E-005  9.234773688546930E-005  9.350932841877036E-005 
 9.468553097488315E-005  9.587652833784997E-005  9.708250660343188E-005  9.830365420818649E-005 
 9.954016195891138E-005  1.007922230624585E-004  1.020600331559224E-004  1.033437903372098E-004 
 1.046436951959918E-004  1.059599508450475E-004  1.072927629519999E-004  1.086423397714524E-004 
 1.100088921775288E-004  1.113926336968227E-004  1.127937805417618E-004  1.142125516443913E-004 
 1.156491686905825E-004  1.171038561546717E-004  1.185768413345346E-004  1.200683543871025E-004 
 1.215786283643244E-004  1.231078992495819E-004  1.246564059945621E-004  1.262243905565943E-004 
 1.278120979364565E-004  1.294197762166570E-004  1.310476766001980E-004  1.326960534498263E-004 
 1.343651643277784E-004  1.360552700360247E-004  1.377666346570208E-004  1.394995255949704E-004 
 1.412542136176082E-004  1.430309728985078E-004  1.448300810599213E-004  1.466518192161597E-004 
 1.484964720175161E-004  1.503643276947436E-004  1.522556781040920E-004  1.541708187729107E-004 
 1.561100489458257E-004  1.580736716314968E-004  1.600619936499638E-004  1.620753256805872E-004 
 1.641139823105929E-004  1.661782820842273E-004  1.682685475525296E-004  1.703851053237321E-004 
 1.725282861142926E-004  1.746984248005698E-004  1.768958604711489E-004  1.791209364798241E-004 
 1.813740004992487E-004  1.836554045752595E-004  1.859655051818849E-004  1.883046632770448E-004 
 1.906732443589506E-004  1.930716185232153E-004  1.955001605206814E-004  1.979592498159769E-004 
 2.004492706468076E-004  2.029706120839940E-004  2.055236680922654E-004  2.081088375918174E-004 
 2.107265245206437E-004  2.133771378976530E-004  2.160610918865779E-004  2.187788058606898E-004 
 2.215307044683264E-004  2.243172176992437E-004  2.271387809518036E-004  2.299958351010046E-004 
 2.328888265673704E-004  2.358182073867033E-004  2.387844352807161E-004  2.417879737285523E-004 
 2.448292920392052E-004  2.479088654248482E-004  2.510271750750883E-004  2.541847082321525E-004 
 2.573819582670209E-004  2.606194247565163E-004  2.638976135613642E-004  2.672170369052349E-004 
 2.705782134547791E-004  2.739816684006715E-004  2.774279335396716E-004  2.809175473577187E-004 
 2.844510551140717E-004  2.880290089265062E-004  2.916519678575852E-004  2.953204980020126E-004 
 2.990351725750869E-004  3.027965720022680E-004  3.066052840098685E-004  3.104619037168891E-004 
 3.143670337280051E-004  3.183212842277259E-004  3.223252730757369E-004  3.263796259034416E-004 
 3.304849762117184E-004  3.346419654699053E-004  3.388512432160312E-004  3.431134671583078E-004 
 3.474293032778974E-004  3.517994259329748E-004  3.562245179640958E-004  3.607052708008932E-004 
 3.652423845701137E-004  3.698365682050143E-004  3.744885395561356E-004  3.791990255034655E-004 
 3.839687620700167E-004  3.887984945368318E-004  3.936889775594347E-004  3.986409752857481E-004 
 4.036552614754911E-004  4.087326196210827E-004  4.138738430700631E-004  4.190797351490558E-004 
 4.243511092892901E-004  4.296887891537000E-004  4.350936087656237E-004  4.405664126391219E-004 
 4.461080559109339E-004  4.517194044740963E-004  4.574013351132380E-004  4.631547356415815E-004 
 4.689805050396645E-004  4.748795535958078E-004  4.808528030483509E-004  4.869011867296728E-004 
 4.930256497120294E-004  4.992271489552221E-004  5.055066534561240E-004  5.118651444000903E-004 
 5.183036153142667E-004  5.248230722228329E-004  5.314245338041948E-004  5.381090315501547E-004 
 5.448776099270865E-004  5.517313265391307E-004  5.586712522934532E-004  5.656984715675720E-004 
 5.728140823787952E-004  5.800191965557905E-004  5.873149399123047E-004  5.947024524230823E-004 
 6.021828884019826E-004  6.097574166823457E-004  6.174272207996277E-004  6.251934991763239E-004 
 6.330574653092331E-004  6.410203479590622E-004  6.490833913424254E-004  6.572478553262574E-004 
 6.655150156246642E-004  6.738861639982637E-004  6.823626084560199E-004  6.909456734596243E-004 
 6.996367001304480E-004  7.084370464590877E-004  7.173480875175635E-004  7.263712156741701E-004 
 7.355078408110388E-004  7.447593905444379E-004  7.541273104478329E-004  7.636130642777702E-004 
 7.732181342025835E-004  7.829440210339899E-004  7.927922444615961E-004  8.027643432903465E-004 
 8.128618756809735E-004  8.230864193934559E-004  8.334395720335501E-004  8.439229513024221E-004 
 8.545381952494082E-004  8.652869625279743E-004  8.761709326548752E-004  8.871918062725863E-004 
 8.983513054150349E-004  9.096511737766629E-004  9.210931769848940E-004  9.326791028760076E-004 
 9.444107617744951E-004  9.562899867759302E-004  9.683186340333845E-004  9.804985830474669E-004 
 9.928317369599902E-004  1.005320022851345E-003  1.017965392041611E-003  1.030769820395448E-003 
 1.043735308630841E-003  1.056863882631703E-003  1.070157593764432E-003  1.083618519198441E-003 
 1.097248762230712E-003  1.111050452614452E-003  1.125025746891863E-003  1.139176828731108E-003 
 1.153505909267517E-003  1.168015227449073E-003  1.182707050386264E-003  1.197583673706315E-003 
 1.212647421911884E-003  1.227900648744279E-003  1.243345737551221E-003  1.258985101659264E-003 
 1.274821184750866E-003  1.290856461246228E-003  1.307093436689929E-003  1.323534648142414E-003 
 1.340182664576424E-003  1.357040087278397E-003  1.374109550254926E-003  1.391393720644332E-003 
 1.408895299133398E-003  1.426617020379376E-003  1.444561653437262E-003  1.462732002192481E-003 
 1.481130905798995E-003  1.499761239122923E-003  1.518625913191752E-003  1.537727875649187E-003 
 1.557070111215722E-003  1.576655642155020E-003  1.596487528746134E-003  1.616568869761695E-003 
 1.636902802952090E-003  1.657492505535752E-003  1.678341194695598E-003  1.699452128081726E-003 
 1.720828604320431E-003  1.742473963529613E-003  1.764391587840687E-003  1.786584901927044E-003 
 1.809057373539162E-003  1.831812514046452E-003  1.854853878985913E-003  1.878185068617695E-003 
 1.901809728487646E-003  1.925731549996934E-003  1.949954270978842E-003  1.974481676282802E-003 
 1.999317598365796E-003  2.024465917891178E-003  2.049930564335037E-003  2.075715516600191E-003 
 2.101824803637890E-003  2.128262505077352E-003  2.155032751863217E-003  2.182139726901008E-003 
 2.209587665710726E-003  2.237380857088652E-003  2.265523643777484E-003  2.294020423144901E-003 
 2.322875647870654E-003  2.352093826642315E-003  2.381679524859761E-003  2.411637365348530E-003 
 2.441972029082150E-003  2.472688255913544E-003  2.503790845315649E-003  2.535284657131336E-003 
 2.567174612332775E-003  2.599465693790351E-003  2.632162947051233E-003  2.665271481127771E-003 
 2.698796469295772E-003  2.732743149902843E-003  2.767116827186898E-003  2.801922872104941E-003 
 2.837166723172309E-003  2.872853887312433E-003  2.908989940717314E-003  2.945580529718820E-003 
 2.982631371670924E-003  3.020148255843063E-003  3.058137044324717E-003  3.096603672941373E-003 
 3.135554152182017E-003  3.174994568138273E-003  3.214931083455378E-003  3.255369938295101E-003 
 3.296317451310783E-003  3.337780020634644E-003  3.379764124877494E-003  3.422276324141040E-003 
 3.465323261042909E-003  3.508911661754570E-003  3.553048337052317E-003  3.597740183381460E-003 
 3.642994183933918E-003  3.688817409739344E-003  3.735217020769998E-003  3.782200267059506E-003 
 3.829774489835688E-003  3.877947122667644E-003  3.926725692627263E-003  3.976117821465340E-003 
 4.026131226802490E-003  4.076773723335062E-003  4.128053224056164E-003  4.179977741492115E-003 
 4.232555388954404E-003  4.285794381807415E-003  4.339703038752104E-003  4.394289783125792E-003 
 4.449563144218345E-003  4.505531758604889E-003  4.562204371495286E-003  4.619589838100611E-003 
 4.677697125016768E-003  4.736535311625557E-003  4.796113591513343E-003  4.856441273907567E-003 
 4.917527785131352E-003  4.979382670076350E-003  5.042015593694182E-003  5.105436342506588E-003 
 5.169654826134597E-003  5.234681078846938E-003  5.300525261127891E-003  5.367197661264898E-003 
 5.434708696956125E-003  5.503068916938247E-003  5.572289002634728E-003  5.642379769824780E-003 
 5.713352170333377E-003  5.785217293742494E-003  5.857986369123871E-003  5.931670766793593E-003 
 6.006282000088705E-003  6.081831727166207E-003  6.158331752824661E-003  6.235794030348711E-003 
 6.314230663376831E-003  6.393653907792505E-003  6.474076173639261E-003  6.555510027059759E-003 
 6.637968192259269E-003  6.721463553493876E-003  6.806009157083640E-003  6.891618213451132E-003 
 6.978304099185581E-003  7.066080359132991E-003  7.154960708512576E-003  7.244959035059746E-003 
 7.336089401196127E-003  7.428366046226835E-003  7.521803388565388E-003  7.616416027986638E-003 
 7.712218747907980E-003  7.809226517699315E-003  7.907454495022033E-003  8.006918028197434E-003 
 8.107632658604948E-003  8.209614123110477E-003  8.312878356525331E-003  8.417441494096076E-003 
 8.523319874025690E-003  8.630530040026441E-003  8.739088743904905E-003  8.849012948179417E-003 
 8.960319828730540E-003  9.073026777484814E-003  9.187151405132278E-003  9.302711543878208E-003 
 9.419725250229381E-003  9.538210807815483E-003  9.658186730245948E-003  9.779671764002738E-003 
 9.902684891369556E-003  1.002724533339782E-002  1.015337255291002E-002  1.028108625754081E-002 
 1.041040640281636E-002  1.054135319527250E-002  1.067394709561195E-002  1.080820882190140E-002 
 1.094415935280874E-002  1.108181993088102E-002  1.122121206586365E-002  1.136235753806130E-002 
 1.150527840174116E-002  1.164999698857897E-002  1.179653591114834E-002  1.194491806645408E-002 
 1.209516663950982E-002  1.224730510696080E-002  1.240135724075207E-002  1.255734711184295E-002 
 1.271529909396820E-002  1.287523786744635E-002  1.303718842303617E-002  1.320117606584145E-002 
 1.336722641926501E-002  1.353536542901242E-002  1.370561936714604E-002  1.387801483619007E-002 
 1.405257877328729E-002  1.422933845440802E-002  1.440832149861208E-002  1.458955587236426E-002 
 1.477306989390417E-002  1.495889223767105E-002  1.514705193878416E-002  1.533757839757963E-002 
 1.553050138420427E-002  1.572585104326724E-002  1.592365789855021E-002  1.612395285777676E-002 
 1.632676721744178E-002  1.653213266770159E-002  1.674008129732562E-002  1.695064559871031E-002 
 1.716385847295614E-002  1.737975323500853E-002  1.759836361886327E-002  1.781972378283761E-002 
 1.804386831490752E-002  1.827083223811216E-002  1.850065101602632E-002  1.873336055830160E-002 
 1.896899722627743E-002  1.920759783866259E-002  1.944919967728819E-002  1.969384049293308E-002 
 1.994155851122243E-002  2.019239243860057E-002  2.044638146837898E-002  2.070356528686030E-002 
 2.096398407953944E-002  2.122767853738255E-002  2.149468986318519E-002  2.176505977801024E-002 
 2.203883052770693E-002  2.231604488951195E-002  2.259674617873330E-002  2.288097825551852E-002 
 2.316878553170787E-002  2.346021297777379E-002  2.375530612984769E-002  2.405411109683491E-002 
 2.435667456761949E-002  2.466304381835930E-002  2.497326671987306E-002  2.528739174512032E-002 
 2.560546797677536E-002  2.592754511489650E-002  2.625367348469184E-002  2.658390404438266E-002 
 2.691828839316580E-002  2.725687877927607E-002  2.759972810815014E-002  2.794688995069319E-002 
 2.829841855164941E-002  2.865436883807793E-002  2.901479642793516E-002  2.937975763876532E-002 
 2.974930949650012E-002  3.012350974436915E-002  3.050241685192253E-002  3.088609002416668E-002 
 3.127458921081534E-002  3.166797511565683E-002  3.206630920603910E-002  3.246965372247428E-002 
 3.287807168836360E-002  3.329162691984519E-002  3.371038403576535E-002  3.413440846777537E-002 
 3.456376647055551E-002  3.499852513216721E-002  3.543875238453585E-002  3.588451701406528E-002 
 3.633588867238575E-002  3.679293788723724E-002  3.725573607348943E-002  3.772435554430049E-002 
 3.819886952241614E-002  3.867935215161084E-002  3.916587850827302E-002  3.965852461313572E-002 
 4.015736744315511E-002  4.066248494353829E-002  4.117395603992233E-002  4.169186065070671E-002 
 4.221627969954051E-002  4.274729512796705E-002  4.328498990822739E-002  4.382944805622484E-002 
 4.438075464465283E-002  4.493899581628739E-002  4.550425879744734E-002  4.607663191162352E-002 
 4.665620459327949E-002  4.724306740182600E-002  4.783731203577080E-002  4.843903134704695E-002 
 4.904831935552106E-002  4.966527126368400E-002  5.028998347152672E-002  5.092255359160263E-002 
 5.156308046427997E-002  5.221166417318576E-002  5.286840606084402E-002  5.353340874451093E-002 
 5.420677613220874E-002  5.488861343896176E-002  5.557902720323636E-002  5.627812530358783E-002 
 5.698601697551677E-002  5.770281282853708E-002  5.842862486345915E-002  5.916356648989008E-002 
 5.990775254395422E-002  6.066129930623668E-002  6.142432451995210E-002  6.219694740934253E-002 
 6.297928869830635E-002  6.377147062926157E-002  6.457361698224673E-002  6.538585309426143E-002 
 6.620830587885064E-002  6.704110384593527E-002  6.788437712189196E-002  6.873825746988584E-002 
 6.960287831045844E-002  7.047837474237524E-002  7.136488356373488E-002  7.226254329334429E-002 
 7.317149419236263E-002  7.409187828621709E-002  7.502383938679485E-002  7.596752311491400E-002 
 7.692307692307693E-002  7.789065011851036E-002  7.887039388649456E-002  7.986246131398658E-002 
 8.086700741354037E-002  8.188418914752764E-002  8.291416545266397E-002  8.395709726484246E-002 
 8.501314754428063E-002  8.608248130098319E-002  8.716526562052510E-002  8.826166969015942E-002 
 8.937186482525258E-002  9.049602449605317E-002  9.163432435479685E-002  9.278694226315236E-002 
 9.395405832001308E-002  9.513585488963733E-002  9.633251663014347E-002  9.754423052236311E-002 
 9.877118589905703E-002  1.000135744744993E-001  1.012715903744325E-001  1.025454301664003E-001 
 1.038352928904619E-001  1.051413800902920E-001  1.064638958446732E-001  1.078030467993826E-001 
 1.091590421994814E-001  1.105320939220096E-001  1.119224165090924E-001  1.133302272014628E-001 
 1.147557459724054E-001  1.161991955621287E-001  1.176608015125677E-001  1.191407922026256E-001 
 1.206393988838592E-001  1.221568557166111E-001  1.236933998065988E-001  1.252492712419624E-001 
 1.268247131307791E-001  1.284199716390495E-001  1.300352960291609E-001  1.316709386988358E-001 
 1.333271552205690E-001  1.350042043815614E-001  1.367023482241568E-001  1.384218520867853E-001 
 1.401629846454238E-001  1.419260179555770E-001  1.437112274947863E-001  1.455188922056746E-001 
 1.473492945395305E-001  1.492027205004427E-001  1.510794596899883E-001  1.529798053524840E-001 
 1.549040544208059E-001  1.568525075627858E-001  1.588254692281914E-001  1.608232476962967E-001 
 1.628461551240519E-001  1.648945075948584E-001  1.669686251679572E-001  1.690688319284387E-001 
 1.711954560378822E-001  1.733488297856314E-001  1.755292896407157E-001  1.777371763044234E-001 
 1.799728347635378E-001  1.822366143442417E-001  1.845288687666999E-001  1.868499562003299E-001 
 1.892002393197654E-001  1.915800853615255E-001  1.939898661813961E-001  1.964299583125328E-001 
 1.989007430242959E-001  2.014026063818232E-001  2.039359393063545E-001  2.065011376363133E-001 
 2.090986021891573E-001  2.117287388240083E-001  2.143919585050655E-001  2.170886773658230E-001 
 2.198193167740897E-001  2.225843033978278E-001  2.253840692718234E-001  2.282190518651899E-001 
 2.310896941497255E-001  2.339964446691281E-001  2.369397576090793E-001  2.399200928682150E-001 
 2.429379161299822E-001  2.459936989354057E-001  2.490879187567664E-001  2.522210590722057E-001 
 2.553936094412732E-001  2.586060655814177E-001  2.618589294454475E-001  2.651527092999598E-001 
 2.684879198047571E-001  2.718650820932672E-001  2.752847238539677E-001  2.787473794128416E-001 
 2.822535898168651E-001  2.858039029185465E-001  2.893988734615319E-001  2.930390631672817E-001 
 2.967250408228441E-001  3.004573823697273E-001  3.042366709938906E-001  3.080634972168715E-001 
 3.119384589880520E-001  3.158621617780932E-001  3.198352186735393E-001  3.238582504726123E-001 
 3.279318857822171E-001  3.320567611161573E-001  3.362335209945967E-001  3.404628180447645E-001 
 3.447453131029281E-001  3.490816753176544E-001  3.534725822543608E-001  3.579187200011899E-001 
 3.624207832762111E-001  3.669794755359694E-001  3.715955090854065E-001  3.762696051891543E-001 
 3.810024941842395E-001  3.857949155941972E-001  3.906476182446216E-001  3.955613603801763E-001 
 4.005369097830654E-001  4.055750438930069E-001  4.106765499287061E-001  4.158422250108590E-001 
 4.210728762867081E-001  4.263693210561557E-001  4.317323868994735E-001  4.371629118066114E-001 
 4.426617443081332E-001  4.482297436078061E-001  4.538677797168476E-001  4.595767335898709E-001 
 4.653574972625346E-001  4.712109739909220E-001  4.771380783926824E-001  4.831397365899359E-001 
 4.892168863539869E-001  4.953704772518511E-001  5.016014707946240E-001  5.079108405877257E-001 
 5.142995724830209E-001  5.207686647328672E-001  5.273191281460909E-001  5.339519862459258E-001 
 5.406682754299462E-001  5.474690451319998E-001  5.543553579861896E-001  5.613282899929105E-001 
 5.683889306869732E-001  5.755383833078528E-001  5.827777649720652E-001  5.901082068477252E-001 
 5.975308543312906E-001  6.050468672265301E-001  6.126574199257523E-001  6.203637015932981E-001 
 6.281669163513575E-001  6.360682834681134E-001  6.440690375482512E-001  6.521704287258755E-001 
 6.603737228598382E-001  6.686802017315385E-001  6.770911632452010E-001  6.856079216306721E-001 
 6.942318076487793E-001  7.029641687992559E-001  7.118063695312992E-001  7.207597914567643E-001 
 7.298258335660405E-001  7.390059124466547E-001  7.483014625046067E-001  7.577139361885062E-001 
 7.672448042165174E-001  7.768955558061580E-001  7.866676989070007E-001  7.965627604362843E-001 
 8.065822865175054E-001  8.167278427220008E-001  8.270010143135658E-001  8.374034064961653E-001 
 8.479366446647388E-001  8.586023746591819E-001  8.694022630215069E-001  8.803379972562401E-001 
 8.914112860941079E-001  9.026238597590164E-001  9.139774702384150E-001  9.254738915570415E-001 
 9.371149200541133E-001  9.489023746640205E-001  9.608380972005240E-001  9.729239526445556E-001 
 9.851618294356186E-001  9.975536397668564E-001  1.010101319883848E+000  1.022806830387138E+000 
 1.035672156538593E+000  1.048699308571597E+000  1.061890322005161E+000  1.075247257961973E+000 
 1.088772203490447E+000  1.102467271890842E+000  1.116334603045456E+000  1.130376363752996E+000 
 1.144594748067142E+000  1.158991977639369E+000  1.173570302066091E+000  1.188331999240156E+000 
 1.203279375706782E+000  1.218414767023956E+000  1.233740538127360E+000  1.249259083699912E+000 
 1.264972828545928E+000  1.280884227970011E+000  1.296995768160696E+000  1.313309966578912E+000 
 1.329829372351359E+000  1.346556566668792E+000  1.363494163189357E+000  1.380644808446974E+000 
 1.398011182264851E+000  1.415595998174236E+000  1.433402003838386E+000  1.451431981481914E+000 
 1.469688748325513E+000  1.488175157026140E+000  1.506894096122771E+000  1.525848490487718E+000 
 1.545041301783667E+000  1.564475528926433E+000  1.584154208553541E+000  1.604080415498726E+000 
 1.624257263272356E+000  1.644687904547949E+000  1.665375531654775E+000  1.686323377076652E+000 
 1.707534713957051E+000  1.729012856610510E+000  1.750761161040518E+000  1.772783025463892E+000 
 1.795081890841748E+000  1.817661241417173E+000  1.840524605259627E+000  1.863675554816229E+000 
 1.887117707469952E+000  1.910854726104835E+000  1.934890319678338E+000  1.959228243800853E+000 
 1.983872301322543E+000  2.008826342927538E+000  2.034094267735600E+000  2.059680023911397E+000 
 2.085587609281378E+000  2.111821071958469E+000  2.138384510974592E+000  2.165282076921127E+000 
 2.192517972597486E+000  2.220096453667772E+000  2.248021829325765E+000  2.276298462968229E+000 
 2.304930772876694E+000  2.333923232907843E+000  2.363280373192533E+000  2.393006780843666E+000 
 2.423107100672921E+000  2.453586035916500E+000  2.484448348970056E+000  2.515698862132782E+000 
 2.547342458360947E+000  2.579384082030844E+000  2.611828739711350E+000  2.644681500946248E+000 
 2.677947499046311E+000  2.711631931891426E+000  2.745740062742762E+000  2.780277221065149E+000 
 2.815248803359849E+000  2.850660274007738E+000  2.886517166123154E+000  2.922825082418446E+000 
 2.959589696079395E+000  2.996816751651694E+000  3.034512065938504E+000  3.072681528909380E+000 
 3.111331104620572E+000  3.150466832146908E+000  3.190094826525447E+000  3.230221279710924E+000 
 3.270852461543291E+000  3.311994720727382E+000  3.353654485824885E+000  3.395838266258868E+000 
 3.438552653330835E+000  3.481804321250674E+000  3.525600028179501E+000  3.569946617285614E+000 
 3.614851017813796E+000  3.660320246167977E+000  3.706361407007601E+000  3.752981694357728E+000 
 3.800188392733091E+000  3.847988878276370E+000  3.896390619910667E+000  3.945401180506593E+000 
 3.995028218063961E+000  4.045279486908343E+000  4.096162838902746E+000  4.147686224674429E+000 
 4.199857694857249E+000  4.252685401349575E+000  4.306177598588012E+000  4.360342644837221E+000 
 4.415189003495865E+000  4.470725244419076E+000  4.526960045257497E+000  4.583902192813153E+000 
 4.641560584412466E+000  4.699944229296413E+000  4.759062250028299E+000  4.818923883919147E+000 
 4.879538484471026E+000  4.940915522838612E+000  5.003064589309001E+000  5.065995394800284E+000 
 5.129717772378863E+000  5.194241678795858E+000  5.259577196042940E+000  5.325734532927588E+000 
 5.392724026668296E+000  5.460556144509765E+000  5.529241485358390E+000  5.598790781438442E+000 
 5.669214899968911E+000  5.740524844861609E+000  5.812731758440514E+000  5.885846923182760E+000 
 5.959881763481613E+000  6.034847847431474E+000  6.110756888635487E+000  6.187620748035793E+000 
 6.265451435766780E+000  6.344261113031778E+000  6.424062094003175E+000  6.504866847746616E+000 
 6.586688000169281E+000  6.669538335992685E+000  6.753430800750379E+000  6.838378502810641E+000 
 6.924394715424754E+000  7.011492878800957E+000  7.099686602204453E+000  7.188989666083980E+000 
 7.279416024224934E+000  7.370979805929760E+000  7.463695318225650E+000  7.557577048100005E+000 
 7.652639664764150E+000  7.748898021945317E+000  7.846367160207668E+000  7.945062309302373E+000 
 8.044998890547248E+000  8.146192519236463E+000  8.248659007080350E+000  8.352414364676124E+000 
 8.457474804009509E+000  8.563856740987873E+000  8.671576798005333E+000  8.780651806539925E+000 
 8.891098809783667E+000  9.002935065305532E+000  9.116178047747949E+000  9.230845451557350E+000 
 9.346955193748844E+000  9.464525416705888E+000  9.583574491015035E+000  9.704121018336322E+000 
 9.826183834309926E+000  9.949782011499151E+000  1.007493486237066E+001  1.020166194231205E+001 
 1.032998305268735E+001  1.045991824393116E+001  1.059148781868144E+001  1.072471233495193E+001 
 1.085961260934438E+001  1.099620972030108E+001  1.113452501139855E+001  1.127458009468240E+001 
 1.141639685404435E+001  1.155999744864161E+001  1.170540431635920E+001  1.185264017731607E+001 
 1.200172803741501E+001  1.215269119193750E+001  1.230555322918359E+001  1.246033803415757E+001 
 1.261706979230015E+001  1.277577299326739E+001  1.293647243475734E+001  1.309919322638470E+001 
 1.326396079360418E+001  1.343080088168342E+001  1.359973955972557E+001  1.377080322474282E+001 
 1.394401860578087E+001  1.411941276809538E+001  1.429701311738110E+001  1.447684740405388E+001 
 1.465894372758692E+001  1.484333054090128E+001  1.503003665481161E+001  1.521909124252813E+001 
 1.541052384421476E+001  1.560436437160499E+001  1.580064311267564E+001  1.599939073637928E+001 
 1.620063829743652E+001  1.640441724118816E+001  1.661075940850878E+001  1.681969704078186E+001 
 1.703126278493747E+001  1.724548969855364E+001  1.746241125502139E+001  1.768206134877530E+001 
 1.790447430058941E+001  1.812968486293989E+001  1.835772822543537E+001  1.858864002031514E+001 
 1.882245632801695E+001  1.905921368281464E+001  1.929894907852651E+001  1.954169997429594E+001 
 1.978750430044423E+001  2.003640046439745E+001  2.028842735668763E+001  2.054362435702939E+001 
 2.080203134047331E+001  2.106368868363620E+001  2.132863727101030E+001  2.159691850135150E+001 
 2.186857429414776E+001  2.214364709616949E+001  2.242217988810155E+001  2.270421619125941E+001 
 2.298980007438928E+001  2.327897616055384E+001  2.357178963410497E+001  2.386828624774357E+001 
 2.416851232966879E+001  2.447251479081677E+001  2.478034113219050E+001  2.509203945228218E+001 
 2.540765845458838E+001  2.572724745522039E+001  2.605085639060981E+001  2.637853582531111E+001 
 2.671033695990270E+001  2.704631163898683E+001  2.738651235929070E+001  2.773099227786906E+001 
 2.807980522040992E+001  2.843300568964533E+001  2.879064887386709E+001  2.915279065555043E+001 
 2.951948762008556E+001  2.989079706461914E+001  3.026677700700742E+001  3.064748619488123E+001 
 3.103298411482578E+001  3.142333100167543E+001  3.181858784792529E+001  3.221881641326187E+001 
 3.262407923421266E+001  3.303443963391799E+001  3.344996173202528E+001  3.387071045470761E+001 
 3.429675154480904E+001  3.472815157211658E+001  3.516497794376222E+001  3.560729891475535E+001 
 3.605518359864746E+001  3.650870197833176E+001  3.696792491697764E+001  3.743292416910363E+001 
 3.790377239178898E+001  3.838054315602631E+001  3.886331095821765E+001  3.935215123181417E+001 
 3.984714035910323E+001  4.034835568314311E+001  4.085587551984778E+001  4.136977917022442E+001 
 4.189014693276381E+001  4.241706011598760E+001  4.295060105115277E+001  4.349085310511578E+001 
 4.403790069335938E+001  4.459182929318203E+001  4.515272545705453E+001  4.572067682614371E+001 
 4.629577214400633E+001  4.687810127045601E+001  4.746775519560336E+001  4.806482605407392E+001 
 4.866940713940416E+001  4.928159291861853E+001  4.990147904699069E+001  5.052916238298921E+001 
 5.116474100341244E+001  5.180831421871304E+001  5.245998258851504E+001  5.311984793732726E+001 
 5.378801337045275E+001  5.446458329009995E+001  5.514966341169538E+001  5.584336078040164E+001 
 5.654578378784414E+001  5.725704218904669E+001  5.797724711958164E+001  5.870651111293474E+001 
 5.944494811808845E+001  6.019267351732743E+001  6.094980414426631E+001  6.171645830210608E+001 
 6.249275578211877E+001  6.327881788236481E+001  6.407476742664683E+001  6.488072878370028E+001 
 6.569682788662705E+001  6.652319225257244E+001  6.735995100264969E+001  6.820723488211610E+001 
 6.906517628080141E+001  6.993390925379479E+001  7.081356954239085E+001  7.170429459529910E+001 
 7.260622359012152E+001  7.351949745509827E+001  7.444425889112897E+001  7.538065239406956E+001 
 7.632882427730971E+001  7.728892269463553E+001  7.826109766337778E+001  7.924550108785337E+001 
 8.024228678310031E+001  8.125161049891116E+001  8.227362994417032E+001  8.330850481149508E+001 