<UPF version="2.0.1">
  <PP_INFO>
    Generated using "atomic" code by A. Dal Corso  v.5.1.2
    Author: ADC
    Generation date: 30Jul2016
    Pseudopotential type: PAW
    Element: Am
    Functional:  SLA  PW   PBX  PBC

    Suggested minimum cutoff for wavefunctions:  48. Ry
    Suggested minimum cutoff for charge density: 284. Ry
    The Pseudo was generated with a Scalar-Relativistic Calculation
    Local Potential by smoothing AE potential with Bessel fncs, cutoff radius:   2.1000
    Pseudopotential contains additional information for GIPAW reconstruction.

    Valence configuration: 
    nl pn  l   occ       Rcut    Rcut US       E pseu
    6S  1  0  2.00      1.400      1.600    -3.971187
    7S  2  0  2.00      1.400      1.600    -0.327018
    6P  2  1  6.00      1.400      1.900    -1.862013
    6D  3  2  1.00      1.500      2.300    -0.154306
    5F  4  3  6.00      1.400      1.800    -0.440476
    Generation configuration:
    6S  1  0  2.00      1.400      1.600    -3.971229
    7S  2  0  2.00      1.400      1.600    -0.327026
    6P  2  1  6.00      1.400      1.900    -1.862045
    7P  3  1  0.00      1.400      1.900     5.000000
    6D  3  2  1.00      1.500      2.300    -0.154320
    6D  3  2  0.00      1.500      2.300     4.800000
    5F  4  3  6.00      1.400      1.800    -0.440528
    5F  4  3  0.00      1.400      1.800     3.100000

    Pseudization used: troullier-martins
<PP_INPUTFILE>
 &input
   title='Am',
   zed=95.0,
   rel=1,
   config='[Rn] 6d1.0 7s2.0 7p0. 5f6.0',
   iswitch=3,
   dft='PBE'
 /
 &inputp
   lpaw=.true.,
   pseudotype=3,
   file_pseudopw='Am.pbe-spfn-kjpaw_psl.1.0.0.UPF',
   author='ADC',
   lloc=-1,
   rcloc=2.1,
   which_augfun='PSQ',
   rmatch_augfun_nc=.true.,
   nlcc=.true.,
   new_core_ps=.true.,
   rcore=1.1,
   tm=.true.
 /
8
6S  1  0  2.00  0.00  1.40  1.60  0.0
7S  2  0  2.00  0.00  1.40  1.60  0.0
6P  2  1  6.00  0.00  1.40  1.90  0.0
7P  3  1  0.00  5.00  1.40  1.90  0.0
6D  3  2  1.00  0.00  1.50  2.30  0.0
6D  3  2  0.00  4.80  1.50  2.30  0.0
5F  4  3  6.00  0.00  1.40  1.80  0.0
5F  4  3  0.00  3.10  1.40  1.80  0.0
</PP_INPUTFILE>
  </PP_INFO>
  <!--                               -->
  <!-- END OF HUMAN READABLE SECTION -->
  <!--                               -->
  <PP_HEADER generated='Generated using "atomic" code by A. Dal Corso  v.5.1.2'
             author="ADC"
             date="30Jul2016"
             comment=""
             element="Am"
             pseudo_type="PAW"
             relativistic="scalar"
             is_ultrasoft="T"
             is_paw="T"
             is_coulomb="F"
             has_so="F"
             has_wfc="T"
             has_gipaw="T"
             paw_as_gipaw="T"
             core_correction="T"
             functional=" SLA  PW   PBX  PBC"
             z_valence="1.700000000000000E+001"
             total_psenergy="-1.138919172807088E+003"
             wfc_cutoff="4.848059194117997E+001"
             rho_cutoff="2.843533311009877E+002"
             l_max="3"
             l_max_rho="6"
             l_local="-1"
             mesh_size="1293"
             number_of_wfc="5"
             number_of_proj="8"/>
  <PP_MESH dx="1.250000000000000E-002" mesh="1293" xmin="-7.000000000000000E+000" rmax="1.000000000000000E+002"
zmesh="9.500000000000000E+001">
    <PP_R type="real" size="1293" columns="4">
 9.598757532152802E-006  9.719495038621288E-006  9.841751235964023E-006  9.965545226960568E-006 
 1.009089635467389E-005  1.021782420547273E-005  1.034634861209199E-005  1.047648965673170E-005 
 1.060826767419485E-005  1.074170325506479E-005  1.087681724892250E-005  1.101363076760441E-005 
 1.115216518850116E-005  1.129244215789786E-005  1.143448359435640E-005  1.157831169214019E-005 
 1.172394892468214E-005  1.187141804809613E-005  1.202074210473271E-005  1.217194442677956E-005 
 1.232504863990710E-005  1.248007866696014E-005  1.263705873169580E-005  1.279601336256858E-005 
 1.295696739656296E-005  1.311994598307421E-005  1.328497458783805E-005  1.345207899690973E-005 
 1.362128532069314E-005  1.379261999802063E-005  1.396610980028412E-005  1.414178183561818E-005 
 1.431966355313572E-005  1.449978274721702E-005  1.468216756185262E-005  1.486684649504086E-005 
 1.505384840324078E-005  1.524320250588101E-005  1.543493838992530E-005  1.562908601449565E-005 
 1.582567571555339E-005  1.602473821063928E-005  1.622630460367316E-005  1.643040638981402E-005 
 1.663707546038123E-005  1.684634410783752E-005  1.705824503083481E-005  1.727281133932343E-005 
 1.749007655972562E-005  1.771007464017412E-005  1.793283995581657E-005  1.815840731418676E-005 
 1.838681196064336E-005  1.861808958387706E-005  1.885227632148705E-005  1.908940876562753E-005 
 1.932952396872534E-005  1.957265944926948E-005  1.981885319767345E-005  2.006814368221133E-005 
 2.032056985502852E-005  2.057617115822807E-005  2.083498753003365E-005  2.109705941102989E-005 
 2.136242775048141E-005  2.163113401273115E-005  2.190322018367926E-005  2.217872877734352E-005 
 2.245770284250219E-005  2.274018596942057E-005  2.302622229666195E-005  2.331585651798439E-005 
 2.360913388932425E-005  2.390610023586744E-005  2.420680195920985E-005  2.451128604460751E-005 
 2.481960006831824E-005  2.513179220503551E-005  2.544791123541583E-005  2.576800655370087E-005 
 2.609212817543535E-005  2.642032674528209E-005  2.675265354493535E-005  2.708916050113368E-005 
 2.742990019377367E-005  2.777492586412549E-005  2.812429142315211E-005  2.847805145993291E-005 
 2.883626125019335E-005  2.919897676494198E-005  2.956625467921592E-005  2.993815238093650E-005 
 3.031472797987624E-005  3.069604031673861E-005  3.108214897235207E-005  3.147311427697958E-005 
 3.186899731974542E-005  3.226985995818046E-005  3.267576482788746E-005  3.308677535232821E-005 
 3.350295575273334E-005  3.392437105813712E-005  3.435108711553841E-005  3.478317060018928E-005 
 3.522068902601339E-005  3.566371075615486E-005  3.611230501366036E-005  3.656654189229530E-005 
 3.702649236749609E-005  3.749222830746031E-005  3.796382248437611E-005  3.844134858579309E-005 
 3.892488122613613E-005  3.941449595836400E-005  3.991026928577482E-005  4.041227867395962E-005 
 4.092060256290664E-005  4.143532037925772E-005  4.195651254871885E-005  4.248426050862693E-005 
 4.301864672067438E-005  4.355975468379407E-005  4.410766894720610E-005  4.466247512362884E-005 
 4.522425990265621E-005  4.579311106430284E-005  4.636911749272006E-005  4.695236919008423E-005 
 4.754295729065964E-005  4.814097407503866E-005  4.874651298456048E-005  4.935966863591169E-005 
 4.998053683591029E-005  5.060921459647564E-005  5.124580014978698E-005  5.189039296363213E-005 
 5.254309375694965E-005  5.320400451556646E-005  5.387322850813318E-005  5.455087030226026E-005 
 5.523703578085668E-005  5.593183215867448E-005  5.663536799906127E-005  5.734775323092342E-005 
 5.806909916590286E-005  5.879951851576947E-005  5.953912541003271E-005  6.028803541377458E-005 
 6.104636554570675E-005  6.181423429645529E-005  6.259176164707467E-005  6.337906908779536E-005 
 6.417627963700671E-005  6.498351786047896E-005  6.580090989082696E-005  6.662858344721839E-005 
 6.746666785533035E-005  6.831529406755671E-005  6.917459468346961E-005  7.004470397053866E-005 
 7.092575788511018E-005  7.181789409365081E-005  7.272125199425823E-005  7.363597273844221E-005 
 7.456219925318026E-005  7.550007626324946E-005  7.644975031384096E-005  7.741136979345722E-005 
 7.838508495709830E-005  7.937104794973974E-005  8.036941283010486E-005  8.138033559473758E-005 
 8.240397420237657E-005  8.344048859863678E-005  8.449004074100169E-005  8.555279462412854E-005 
 8.662891630547400E-005  8.771857393124010E-005  8.882193776264770E-005  8.993918020254049E-005 
 9.107047582232247E-005  9.221600138923608E-005  9.337593589398166E-005  9.455046057868543E-005 
 9.573975896521920E-005  9.694401688387516E-005  9.816342250240344E-005  9.939816635541275E-005 
 1.006484413741422E-004  1.019144429166073E-004  1.031963687981245E-004  1.044944193222212E-004 
 1.058087973119325E-004  1.071397081414934E-004  1.084873597684289E-004  1.098519627660474E-004 
 1.112337303563437E-004  1.126328784433150E-004  1.140496256466963E-004  1.154841933361209E-004 
 1.169368056657085E-004  1.184076896090912E-004  1.198970749948777E-004  1.214051945425644E-004 
 1.229322838988995E-004  1.244785816747012E-004  1.260443294821434E-004  1.276297719725063E-004 
 1.292351568744046E-004  1.308607350324957E-004  1.325067604466737E-004  1.341734903117586E-004 
 1.358611850576829E-004  1.375701083901840E-004  1.393005273320099E-004  1.410527122646403E-004 
 1.428269369705362E-004  1.446234786759173E-004  1.464426180940802E-004  1.482846394692604E-004 
 1.501498306210448E-004  1.520384829893461E-004  1.539508916799392E-004  1.558873555105726E-004 
 1.578481770576602E-004  1.598336627035573E-004  1.618441226844361E-004  1.638798711387588E-004 
 1.659412261563630E-004  1.680285098281644E-004  1.701420482964829E-004  1.722821718060045E-004 
 1.744492147553816E-004  1.766435157494838E-004  1.788654176523061E-004  1.811152676405409E-004 
 1.833934172578265E-004  1.857002224696754E-004  1.880360437190951E-004  1.904012459829086E-004 
 1.927961988287808E-004  1.952212764729672E-004  1.976768578387833E-004  2.001633266158132E-004 
 2.026810713198624E-004  2.052304853536631E-004  2.078119670683451E-004  2.104259198256782E-004 
 2.130727520610989E-004  2.157528773475290E-004  2.184667144599973E-004  2.212146874410740E-004 
 2.239972256671282E-004  2.268147639154186E-004  2.296677424320292E-004  2.325566070006573E-004 
 2.354818090122695E-004  2.384438055356313E-004  2.414430593887256E-004  2.444800392110692E-004 
 2.475552195369379E-004  2.506690808695145E-004  2.538221097559671E-004  2.570147988634740E-004 
 2.602476470562042E-004  2.635211594732647E-004  2.668358476076310E-004  2.701922293860677E-004 
 2.735908292500563E-004  2.770321782377401E-004  2.805168140668999E-004  2.840452812189735E-004 
 2.876181310241323E-004  2.912359217474271E-004  2.948992186760192E-004  2.986085942075063E-004 
 3.023646279393625E-004  3.061679067594998E-004  3.100190249379715E-004  3.139185842198285E-004 
 3.178671939191421E-004  3.218654710142115E-004  3.259140402439673E-004  3.300135342055883E-004 
 3.341645934533469E-004  3.383678665986954E-004  3.426240104116151E-004  3.469336899232354E-004 
 3.512975785297482E-004  3.557163580976269E-004  3.601907190701688E-004  3.647213605753792E-004 
 3.693089905352109E-004  3.739543257761786E-004  3.786580921413649E-004  3.834210246038341E-004 
 3.882438673814739E-004  3.931273740532802E-004  3.980723076771061E-004  4.030794409088912E-004 
 4.081495561233896E-004  4.132834455364191E-004  4.184819113286455E-004  4.237457657709248E-004 
 4.290758313512234E-004  4.344729409031321E-004  4.399379377359991E-004  4.454716757666981E-004 
 4.510750196530546E-004  4.567488449289513E-004  4.624940381411308E-004  4.683114969877213E-004 
 4.742021304585034E-004  4.801668589769411E-004  4.862066145440013E-004  4.923223408837788E-004 
 4.985149935909572E-004  5.047855402801208E-004  5.111349607369471E-004  5.175642470713009E-004 
 5.240744038722521E-004  5.306664483650461E-004  5.373414105700465E-004  5.441003334636781E-004 
 5.509442731413934E-004  5.578742989826926E-004  5.648914938182120E-004  5.719969540989209E-004 
 5.791917900674448E-004  5.864771259315410E-004  5.938541000397616E-004  6.013238650593188E-004 
 6.088875881561946E-004  6.165464511775111E-004  6.243016508361971E-004  6.321543988979783E-004 
 6.401059223707155E-004  6.481574636961288E-004  6.563102809439311E-004  6.645656480084040E-004 
 6.729248548074481E-004  6.813892074841321E-004  6.899600286107828E-004  6.986386573956384E-004 
 7.074264498921027E-004  7.163247792106337E-004  7.253350357332904E-004  7.344586273309860E-004 
 7.436969795834697E-004  7.530515360020760E-004  7.625237582552785E-004  7.721151263970751E-004 
 7.818271390982516E-004  7.916613138805519E-004  8.016191873537929E-004  8.117023154559654E-004 
 8.219122736963492E-004  8.322506574016914E-004  8.427190819654798E-004  8.533191831003498E-004 
 8.640526170936715E-004  8.749210610663428E-004  8.859262132348463E-004  8.970697931765987E-004 
 9.083535420986368E-004  9.197792231096883E-004  9.313486214956560E-004  9.430635449985760E-004 
 9.549258240990795E-004  9.669373123024094E-004  9.790998864280369E-004  9.914154469029125E-004 
 1.003885918058417E-003  1.016513248431041E-003  1.029299411066843E-003  1.042246403829751E-003 
 1.055356249713724E-003  1.068630997158854E-003  1.082072720371436E-003  1.095683519648070E-003 
 1.109465521703835E-003  1.123420880004592E-003  1.137551775103467E-003  1.151860414981568E-003 
 1.166349035392989E-003  1.181019900214144E-003  1.195875301797513E-003  1.210917561329815E-003 
 1.226149029194705E-003  1.241572085340027E-003  1.257189139649680E-003  1.273002632320176E-003 
 1.289015034241915E-003  1.305228847385277E-003  1.321646605191551E-003  1.338270872968796E-003 
 1.355104248292676E-003  1.372149361412334E-003  1.389408875661371E-003  1.406885487874005E-003 
 1.424581928806450E-003  1.442500963563605E-003  1.460645392031108E-003  1.479018049312823E-003 
 1.497621806173828E-003  1.516459569488982E-003  1.535534282697131E-003  1.554848926261019E-003 
 1.574406518133001E-003  1.594210114226597E-003  1.614262808893984E-003  1.634567735409505E-003 
 1.655128066459239E-003  1.675947014636741E-003  1.697027832945020E-003  1.718373815304825E-003 
 1.739988297069332E-003  1.761874655545290E-003  1.784036310520739E-003  1.806476724799356E-003 
 1.829199404741528E-003  1.852207900812226E-003  1.875505808135774E-003  1.899096767057588E-003 
 1.922984463712998E-003  1.947172630603203E-003  1.971665047178495E-003  1.996465540428793E-003 
 2.021577985481623E-003  2.047006306207618E-003  2.072754475833622E-003  2.098826517563528E-003 
 2.125226505206900E-003  2.151958563815517E-003  2.179026870327924E-003  2.206435654222082E-003 
 2.234189198176243E-003  2.262291838738112E-003  2.290747967002453E-003  2.319562029297200E-003 
 2.348738527878209E-003  2.378282021632746E-003  2.408197126791816E-003  2.438488517651462E-003 
 2.469160927303135E-003  2.500219148373244E-003  2.531668033772023E-003  2.563512497451798E-003 
 2.595757515174806E-003  2.628408125290671E-003  2.661469429523647E-003  2.694946593769790E-003 
 2.728844848904122E-003  2.763169491597973E-003  2.797925885146598E-003  2.833119460307198E-003 
 2.868755716147502E-003  2.904840220904981E-003  2.941378612856921E-003  2.978376601201400E-003 
 3.015839966949369E-003  3.053774563827951E-003  3.092186319195083E-003  3.131081234965692E-003 
 3.170465388549498E-003  3.210344933800624E-003  3.250726101979157E-003  3.291615202724778E-003 
 3.333018625042667E-003  3.374942838301799E-003  3.417394393245787E-003  3.460379923016465E-003 
 3.503906144190312E-003  3.547979857827942E-003  3.592607950536778E-003  3.637797395547100E-003 
 3.683555253801636E-003  3.729888675058830E-003  3.776804899010019E-003  3.824311256410647E-003 
 3.872415170225709E-003  3.921124156789611E-003  3.970445826980601E-003  4.020387887409990E-003 
 4.070958141626332E-003  4.122164491334727E-003  4.174014937631505E-003  4.226517582254387E-003 
 4.279680628848414E-003  4.333512384247776E-003  4.388021259773773E-003  4.443215772549111E-003 
 4.499104546828703E-003  4.555696315347237E-003  4.612999920683680E-003  4.671024316642946E-003 
 4.729778569654965E-003  4.789271860191302E-003  4.849513484199643E-003  4.910512854556302E-003 
 4.972279502536997E-003  5.034823079306148E-003  5.098153357424869E-003  5.162280232377961E-003 
 5.227213724120104E-003  5.292963978641483E-003  5.359541269553150E-003  5.426955999692256E-003 
 5.495218702747541E-003  5.564340044905239E-003  5.634330826515687E-003  5.705201983780918E-003 
 5.776964590463438E-003  5.849629859616544E-003  5.923209145336381E-003  5.997713944536032E-003 
 6.073155898741966E-003  6.149546795913011E-003  6.226898572282267E-003  6.305223314222166E-003 
 6.384533260132983E-003  6.464840802355136E-003  6.546158489105477E-003  6.628499026438004E-003 
 6.711875280229197E-003  6.796300278188338E-003  6.881787211893131E-003  6.968349438850887E-003 
 7.056000484585680E-003  7.144754044751735E-003  7.234623987273392E-003  7.325624354512022E-003 
 7.417769365460144E-003  7.511073417963188E-003  7.605551090969186E-003  7.701217146806756E-003 
 7.798086533491768E-003  7.896174387062969E-003  7.995496033947041E-003  8.096066993353379E-003 
 8.197902979698999E-003  8.301019905063966E-003  8.405433881677655E-003  8.511161224436346E-003 
 8.618218453452448E-003  8.726622296635794E-003  8.836389692307448E-003  8.947537791846301E-003 
 9.060083962369033E-003  9.174045789443773E-003  9.289441079837847E-003  9.406287864300165E-003 
 9.524604400378524E-003  9.644409175272402E-003  9.765720908721616E-003  9.888558555931324E-003 
 1.001294131053383E-002  1.013888860758760E-002  1.026642012661403E-002  1.039555579467244E-002 
 1.052631578947368E-002  1.065872054253300E-002  1.079279074236241E-002  1.092854733770343E-002 
 1.106601154080026E-002  1.120520483071431E-002  1.134614895668033E-002  1.148886594150476E-002 
 1.163337808500682E-002  1.177970796750296E-002  1.192787845333501E-002  1.207791269444287E-002 
 1.222983413398193E-002  1.238366650998622E-002  1.253943385907746E-002  1.269716052022085E-002 
 1.285687113852811E-002  1.301859066910827E-002  1.318234438096700E-002  1.334815786095495E-002 
 1.351605701776570E-002  1.368606808598412E-002  1.385821763018549E-002  1.403253254908635E-002 
 1.420904007974741E-002  1.438776780182944E-002  1.456874364190265E-002  1.475199587781025E-002 
 1.493755314308693E-002  1.512544443143290E-002  1.531569910124422E-002  1.550834688020017E-002 
 1.570341786990812E-002  1.590094255060709E-002  1.610095178593031E-002  1.630347682772772E-002 
 1.650854932094915E-002  1.671620130858888E-002  1.692646523669246E-002  1.713937395942643E-002 
 1.735496074421188E-002  1.757325927692256E-002  1.779430366714833E-002  1.801812845352490E-002 
 1.824476860913049E-002  1.847425954695051E-002  1.870663712541093E-002  1.894193765398115E-002 
 1.918019789884748E-002  1.942145508865790E-002  1.966574692033918E-002  1.991311156498705E-002 
 2.016358767383049E-002  2.041721438427111E-002  2.067403132599840E-002  2.093407862718202E-002 
 2.119739692074186E-002  2.146402735069701E-002  2.173401157859461E-002  2.200739179001955E-002 
 2.228421070118605E-002  2.256451156561221E-002  2.284833818087835E-002  2.313573489547056E-002 
 2.342674661571020E-002  2.372141881277062E-002  2.401979752978215E-002  2.432192938902637E-002 
 2.462786159922097E-002  2.493764196289623E-002  2.525131888386419E-002  2.556894137478198E-002 
 2.589055906481001E-002  2.621622220736666E-002  2.654598168798052E-002  2.687988903224134E-002 
 2.721799641385102E-002  2.756035666277581E-002  2.790702327350113E-002  2.825805041339024E-002 
 2.861349293114784E-002  2.897340636539060E-002  2.933784695332475E-002  2.970687163953368E-002 
 3.008053808487543E-002  3.045890467549222E-002  3.084203053193374E-002  3.122997551839441E-002 
 3.162280025206771E-002  3.202056611261753E-002  3.242333525176875E-002  3.283117060301890E-002 
 3.324413589147125E-002  3.366229564379236E-002  3.408571519829435E-002  3.451446071514393E-002 
 3.494859918670054E-002  3.538819844798348E-002  3.583332718727177E-002  3.628405495683660E-002 
 3.674045218380886E-002  3.720259018118393E-002  3.767054115896400E-002  3.814437823544149E-002 
 3.862417544862365E-002  3.911000776780110E-002  3.960195110526226E-002  4.010008232815434E-002 
 4.060447927049445E-002  4.111522074533110E-002  4.163238655705871E-002  4.215605751388767E-002 
 4.268631544047027E-002  4.322324319068643E-002  4.376692466058959E-002  4.431744480151537E-002 
 4.487488963335602E-002  4.543934625800047E-002  4.601090287294481E-002  4.658964878507303E-002 
 4.717567442461121E-002  4.776907135925797E-002  4.836993230849147E-002  4.897835115805756E-002 
 4.959442297463942E-002  5.021824402071161E-002  5.084991176958193E-002  5.148952492062112E-002 
 5.213718341468540E-002  5.279298844973224E-002  5.345704249663244E-002  5.412944931518202E-002 
 5.481031397031422E-002  5.549974284851673E-002  5.619784367445452E-002  5.690472552780176E-002 
 5.762049886028637E-002  5.834527551294762E-002  5.907916873361215E-002  5.982229319458893E-002 
 6.057476501058664E-002  6.133670175685768E-002  6.210822248756861E-002  6.288944775440339E-002 
 6.368049962539947E-002  6.448150170402091E-002  6.529257914847234E-002  6.611385869125438E-002 
 6.694546865896663E-002  6.778753899235856E-002  6.864020126663277E-002  6.950358871200457E-002 
 7.037783623451865E-002  7.126308043712919E-002  7.215945964104403E-002  7.306711390733722E-002 
 7.398618505883474E-002  7.491681670227365E-002  7.585915425074174E-002  7.681334494639828E-002 
 7.777953788348053E-002  7.875788403160090E-002  7.974853625933524E-002  8.075164935810976E-002 
 8.176738006638713E-002  8.279588709415675E-002  8.383733114773453E-002  8.489187495487237E-002 
 8.595968329018575E-002  8.704092300089973E-002  8.813576303291858E-002  8.924437445722506E-002 
 9.036693049660943E-002  9.150360655273686E-002  9.265458023355382E-002  9.382003138103934E-002 
 9.500014209930664E-002  9.619509678305609E-002  9.740508214638831E-002  9.863028725197827E-002 
 9.987090354061606E-002  1.011271248611212E-001  1.023991475006304E-001  1.036871702152693E-001 
 1.049913942612077E-001  1.063120234261058E-001  1.076492640609580E-001  1.090033251123336E-001 
 1.103744181550271E-001  1.117627574251159E-001  1.131685598534353E-001  1.145920450994753E-001 
 1.160334355857011E-001  1.174929565323091E-001  1.189708359924167E-001  1.204673048876960E-001 
 1.219825970444569E-001  1.235169492301812E-001  1.250706011905199E-001  1.266437956867530E-001 
 1.282367785337208E-001  1.298497986382344E-001  1.314831080379665E-001  1.331369619408339E-001 
 1.348116187648741E-001  1.365073401786225E-001  1.382243911420003E-001  1.399630399477136E-001 
 1.417235582631759E-001  1.435062211729554E-001  1.453113072217589E-001  1.471390984579542E-001 
 1.489898804776401E-001  1.508639424692731E-001  1.527615772588518E-001  1.546830813556731E-001 
 1.566287549986616E-001  1.585989022032820E-001  1.605938308090440E-001  1.626138525276003E-001 
 1.646592829914544E-001  1.667304418032782E-001  1.688276525858492E-001  1.709512430326195E-001 
 1.731015449589164E-001  1.752788943537910E-001  1.774836314325163E-001  1.797161006897459E-001 
 1.819766509533438E-001  1.842656354388873E-001  1.865834118048594E-001  1.889303422085332E-001 
 1.913067933625586E-001  1.937131365922639E-001  1.961497478936739E-001  1.986170079922619E-001 
 2.011153024024386E-001  2.036450214877875E-001  2.062065605220634E-001  2.088003197509509E-001 
 2.114267044546070E-001  2.140861250109856E-001  2.167789969599583E-001  2.195057410682467E-001 
 2.222667833951645E-001  2.250625553591931E-001  2.278934938053903E-001  2.307600410736471E-001 
 2.336626450678070E-001  2.366017593256487E-001  2.395778430897550E-001  2.425913613792695E-001 
 2.456427850625550E-001  2.487325909307710E-001  2.518612617723700E-001  2.550292864485366E-001 
 2.582371599695724E-001  2.614853835722405E-001  2.647744647980884E-001  2.681049175727483E-001 
 2.714772622862427E-001  2.748920258742947E-001  2.783497419006611E-001  2.818509506405069E-001 
 2.853961991648201E-001  2.889860414258958E-001  2.926210383438915E-001  2.963017578944701E-001 
 3.000287751975507E-001  3.038026726071688E-001  3.076240398024730E-001  3.114934738798630E-001 
 3.154115794462845E-001  3.193789687137049E-001  3.233962615947678E-001  3.274640857996596E-001 
 3.315830769341891E-001  3.357538785991000E-001  3.399771424906392E-001  3.442535285023808E-001 
 3.485837048283401E-001  3.529683480673786E-001  3.574081433289216E-001  3.619037843400129E-001 
 3.664559735537058E-001  3.710654222588267E-001  3.757328506911148E-001  3.804589881457572E-001 
 3.852445730913477E-001  3.900903532852694E-001  3.949970858905369E-001  3.999655375941032E-001 
 4.049964847266541E-001  4.100907133839160E-001  4.152490195494795E-001  4.204722092191783E-001 
 4.257610985270256E-001  4.311165138727348E-001  4.365392920508507E-001  4.420302803814948E-001 
 4.475903368427662E-001  4.532203302047996E-001  4.589211401655106E-001  4.646936574880556E-001 
 4.705387841400090E-001  4.764574334343028E-001  4.824505301719317E-001  4.885190107864524E-001 
 4.946638234903090E-001  5.008859284229863E-001  5.071862978010402E-001  5.135659160700048E-001 
 5.200257800582125E-001  5.265668991325559E-001  5.331902953561964E-001  5.398970036482705E-001 
 5.466880719455947E-001  5.535645613664048E-001  5.605275463761652E-001  5.675781149554481E-001 
 5.747173687699393E-001  5.819464233425735E-001  5.892664082278332E-001  5.966784671882512E-001 
 6.041837583731183E-001  6.117834544994525E-001  6.194787430352364E-001  6.272708263849578E-001 
 6.351609220774953E-001  6.431502629563512E-001  6.512400973722935E-001  6.594316893784097E-001 
 6.677263189276141E-001  6.761252820726521E-001  6.846298911686002E-001  6.932414750779337E-001 
 7.019613793781602E-001  7.107909665720648E-001  7.197316163006129E-001  7.287847255585120E-001 
 7.379517089125037E-001  7.472339987223888E-001  7.566330453648323E-001  7.661503174599973E-001 
 7.757873021010089E-001  7.855455050863254E-001  7.954264511550176E-001  8.054316842250093E-001 
 8.155627676343260E-001  8.258212843853595E-001  8.362088373922245E-001  8.467270497312138E-001 
 8.573775648944015E-001  8.681620470464538E-001  8.790821812846450E-001  8.901396739021684E-001 
 9.013362526547438E-001  9.126736670305780E-001  9.241536885237360E-001  9.357781109109298E-001 
 9.475487505318085E-001  9.594674465727626E-001  9.715360613542935E-001  9.837564806220184E-001 
 9.961306138413069E-001  1.008660394495651E+000  1.021347780388773E+000  1.034194753950527E+000 
 1.047203322546673E+000  1.060375518792517E+000  1.073713400870523E+000  1.087219052851904E+000 
 1.100894585022255E+000  1.114742134211306E+000  1.128763864126785E+000  1.142961965692522E+000 
 1.157338657390775E+000  1.171896185608867E+000  1.186636824990204E+000  1.201562878789674E+000 
 1.216676679233554E+000  1.231980587883915E+000  1.247476996007614E+000  1.263168324949953E+000 
 1.279057026513000E+000  1.295145583338700E+000  1.311436509296794E+000  1.327932349877602E+000 
 1.344635682589779E+000  1.361549117363042E+000  1.378675296955985E+000  1.396016897369017E+000 
 1.413576628262479E+000  1.431357233380054E+000  1.449361490977460E+000  1.467592214256581E+000 
 1.486052251805021E+000  1.504744488041200E+000  1.523671843665065E+000  1.542837276114434E+000 
 1.562243780027122E+000  1.581894387708852E+000  1.601792169607049E+000  1.621940234790620E+000 
 1.642341731435738E+000  1.662999847317763E+000  1.683917810309334E+000  1.705098888884719E+000 
 1.726546392630547E+000  1.748263672762906E+000  1.770254122651005E+000  1.792521178347380E+000 
 1.815068319124783E+000  1.837899068019836E+000  1.861016992383499E+000  1.884425704438491E+000 
 1.908128861843699E+000  1.932130168265684E+000  1.956433373957414E+000  1.981042276344216E+000 
 2.005960720617158E+000  2.031192600333859E+000  2.056741858026852E+000  2.082612485819639E+000 
 2.108808526050440E+000  2.135334071903841E+000  2.162193268050351E+000  2.189390311294007E+000 
 2.216929451228155E+000  2.244814990899432E+000  2.273051287480148E+000  2.301642752949097E+000 
 2.330593854780918E+000  2.359909116644182E+000  2.389593119108190E+000  2.419650500358725E+000 
 2.450085956922761E+000  2.480904244402301E+000  2.512110178217472E+000  2.543708634358913E+000 
 2.575704550149688E+000  2.608102925016740E+000  2.640908821272048E+000  2.674127364903656E+000 
 2.707763746376579E+000  2.741823221443861E+000  2.776311111967781E+000  2.811232806751391E+000 
 2.846593762380558E+000  2.882399504076532E+000  2.918655626559305E+000  2.955367794921785E+000 
 2.992541745514957E+000  3.030183286844246E+000  3.068298300477054E+000  3.106892741961814E+000 
 3.145972641758533E+000  3.185544106181051E+000  3.225613318351206E+000  3.266186539164909E+000 
 3.307270108270465E+000  3.348870445059137E+000  3.390994049668174E+000  3.433647503996509E+000 
 3.476837472733147E+000  3.520570704398579E+000  3.564854032399237E+000  3.609694376095204E+000 
 3.655098741881422E+000  3.701074224282408E+000  3.747628007060833E+000  3.794767364339976E+000 
 3.842499661740304E+000  3.890832357530413E+000  3.939773003792339E+000  3.989329247601637E+000 
 4.039508832222234E+000  4.090319598316303E+000  4.141769485169436E+000  4.193866531931115E+000 
 4.246618878870896E+000  4.300034768650321E+000  4.354122547610830E+000  4.408890667077940E+000 
 4.464347684681733E+000  4.520502265694041E+000  4.577363184382407E+000  4.634939325381041E+000 
 4.693239685079132E+000  4.752273373026479E+000  4.812049613356937E+000  4.872577746229680E+000 
 4.933867229288600E+000  4.995927639140136E+000  5.058768672849572E+000  5.122400149456286E+000 
 5.186832011507966E+000  5.252074326614126E+000  5.318137289019258E+000  5.385031221195623E+000 
 5.452766575456232E+000  5.521353935588005E+000  5.590804018505485E+000  5.661127675925447E+000 
 5.732335896062415E+000  5.804439805345671E+000  5.877450670157748E+000  5.951379898594792E+000 
 6.026239042249178E+000  6.102039798014383E+000  6.178794009912725E+000  6.256513670945981E+000 
 6.335210924969287E+000  6.414898068588717E+000  6.495587553082565E+000  6.577291986346957E+000 
 6.660024134865832E+000  6.743796925705693E+000  6.828623448535568E+000  6.914516957672208E+000 
 7.001490874151177E+000  7.089558787823889E+000  7.178734459481006E+000  7.269031823002678E+000 
 7.360464987535640E+000  7.453048239697888E+000  7.546796045810946E+000  7.641723054160225E+000 
 7.737844097283936E+000  7.835174194290600E+000  7.933728553205908E+000  8.033522573348964E+000 
 8.134571847738421E+000  8.236892165529017E+000  8.340499514478548E+000  8.445410083446095E+000 