<UPF version="2.0.1">
  <PP_INFO>
    Generated using "atomic" code by A. Dal Corso  v.5.1.2
    Author: ADC
    Generation date: 30Jul2016
    Pseudopotential type: USPP
    Element: Ar
    Functional: PBE

    Suggested minimum cutoff for wavefunctions:  46. Ry
    Suggested minimum cutoff for charge density: 189. Ry
    The Pseudo was generated with a Scalar-Relativistic Calculation
    L component and cutoff radius for Local Potential:  2   1.4000
    Pseudopotential contains additional information for GIPAW reconstruction.

    Valence configuration: 
    nl pn  l   occ       Rcut    Rcut US       E pseu
    3S  1  0  2.00      1.200      1.600    -1.785057
    3P  2  1  6.00      1.200      1.500    -0.754837
    Generation configuration:
    3S  1  0  2.00      1.200      1.600    -1.785054
    3S  1  0  0.00      1.200      1.600     5.000000
    3P  2  1  6.00      1.200      1.500    -0.754831
    3P  2  1  0.00      1.200      1.500     2.500000
    3D  3  2  0.00      1.400      1.400     1.500000

    Pseudization used: troullier-martins
<PP_INPUTFILE>
 &input
   title='Ar',
   zed=18.,
   rel=1,
   config='[Ne] 3s2 3p6 3d-1',
   iswitch=3,
   dft='PBE'
 /
 &inputp
   lpaw=.false.,
   pseudotype=3,
   file_pseudopw='Ar.pbe-nl-rrkjus_psl.1.0.0.UPF',
   author='ADC',
   lloc=2,
   which_augfun='PSQ',
   rmatch_augfun_nc=.true.,
   nlcc=.true.,
   new_core_ps=.true.,
   rcore=1.2,
   tm=.true.
 /
5
3S  1  0  2.00  0.00  1.20  1.60  0.0
3S  1  0  0.00  5.00  1.20  1.60  0.0
3P  2  1  6.00  0.00  1.20  1.50  0.0
3P  2  1  0.00  2.50  1.20  1.50  0.0
3D  3  2  0.00  1.50  1.40  1.40  0.0
</PP_INPUTFILE>
  </PP_INFO>
  <!--                               -->
  <!-- END OF HUMAN READABLE SECTION -->
  <!--                               -->
  <PP_HEADER generated='Generated using "atomic" code by A. Dal Corso  v.5.1.2'
             author="ADC"
             date="30Jul2016"
             comment=""
             element="Ar"
             pseudo_type="USPP"
             relativistic="scalar"
             is_ultrasoft="T"
             is_paw="F"
             is_coulomb="F"
             has_so="F"
             has_wfc="F"
             has_gipaw="T"
             paw_as_gipaw="F"
             core_correction="T"
             functional="PBE"
             z_valence="8.000000000000000E+000"
             total_psenergy="-4.312844234739191E+001"
             wfc_cutoff="4.619443565639734E+001"
             rho_cutoff="1.890040674519337E+002"
             l_max="2"
             l_max_rho="4"
             l_local="2"
             mesh_size="1161"
             number_of_wfc="2"
             number_of_proj="4"/>
  <PP_MESH dx="1.250000000000000E-002" mesh="1161" xmin="-7.000000000000000E+000" rmax="1.000000000000000E+002"
zmesh="1.800000000000000E+001">
    <PP_R type="real" size="1161" columns="4">
 5.066010919747313E-005  5.129733492605679E-005  5.194257596758790E-005  5.259593314229189E-005 
 5.325750853855666E-005  5.392740552888383E-005  5.460572878604103E-005  5.529258429941729E-005 
 5.598807939158392E-005  5.669232273506414E-005  5.740542436931316E-005  5.812749571791214E-005 
 5.885864960597834E-005  5.959900027779427E-005  6.034866341465877E-005  6.110775615296213E-005 
 6.187639710248906E-005  6.265470636495180E-005  6.344280555275598E-005  6.424081780800321E-005 
 6.504886782173191E-005  6.586708185340071E-005  6.669558775061671E-005  6.753451496911193E-005 
 6.838399459297117E-005  6.924415935511387E-005  7.011514365803413E-005  7.099708359480135E-005 
 7.189011697032488E-005  7.279438332288666E-005  7.371002394594397E-005  7.463718191020704E-005 
 7.557600208599411E-005  7.652663116586761E-005  7.748921768755548E-005  7.846391205716009E-005 
 7.945086657265969E-005  8.045023544770531E-005  8.146217483571684E-005  8.248684285428261E-005 
 8.352439960986513E-005  8.457500722281842E-005  8.563882985271946E-005  8.671603372401845E-005 
 8.780678715201206E-005  8.891126056914246E-005  9.002962655162815E-005  9.116205984642922E-005 
 9.230873739855189E-005  9.346983837869673E-005  9.464554421125410E-005  9.583603860265235E-005 
 9.704150757006220E-005  9.826213947046225E-005  9.949812503007054E-005  1.007496573741453E-004 
 1.020169320571615E-004  1.033001470933667E-004  1.045995029877210E-004  1.059152027672265E-004 
 1.072474520126505E-004  1.085964588906482E-004  1.099624341862887E-004  1.113455913359911E-004 
 1.127461464608741E-004  1.141643184005255E-004  1.156003287471961E-004  1.170544018804241E-004 
 1.185267650020949E-004  1.200176481719419E-004  1.215272843434936E-004  1.230559094004732E-004 
 1.246037621936558E-004  1.261710845781893E-004  1.277581214513853E-004  1.293651207909841E-004 
 1.309923336939018E-004  1.326400144154652E-004  1.343084204091391E-004  1.359978123667546E-004 
 1.377084542592422E-004  1.394406133778777E-004  1.411945603760477E-004  1.429705693115389E-004 
 1.447689176893610E-004  1.465898865051068E-004  1.484337602888584E-004  1.503008271496459E-004 
 1.521913788204649E-004  1.541057107038605E-004  1.560441219180840E-004  1.580069153438315E-004 
 1.599943976715691E-004  1.620068794494538E-004  1.640446751318582E-004  1.661081031285033E-004 
 1.681974858542120E-004  1.703131497792857E-004  1.724554254805172E-004  1.746246476928434E-004 
 1.768211553616482E-004  1.790452916957237E-004  1.812974042208971E-004  1.835778448343323E-004 
 1.858869698595151E-004  1.882251401019284E-004  1.905927209054297E-004  1.929900822093363E-004 
 1.954175986062294E-004  1.978756494004850E-004  2.003646186675406E-004  2.028848953139080E-004 
 2.054368731379407E-004  2.080209508913656E-004  2.106375323415893E-004  2.132870263347869E-004 
 2.159698468597850E-004  2.186864131127491E-004  2.214371495626828E-004  2.242224860177532E-004 
 2.270428576924482E-004  2.298987052755798E-004  2.327904749991433E-004  2.357186187080411E-004 
 2.386835939306855E-004  2.416858639504872E-004  2.447258978782448E-004  2.478041707254445E-004 
 2.509211634784814E-004  2.540773631738151E-004  2.572732629740692E-004  2.605093622450895E-004 
 2.637861666339710E-004  2.671041881480659E-004  2.704639452349868E-004  2.738659628636140E-004 
 2.773107726061232E-004  2.807989127210452E-004  2.843309282373695E-004  2.879073710397069E-004 
 2.915287999545213E-004  2.951957808374486E-004  2.989088866617122E-004  3.026686976076514E-004 
 3.064758011533762E-004  3.103307921665611E-004  3.142342729973949E-004  3.181868535726992E-004 
 3.221891514912301E-004  3.262417921201807E-004  3.303454086928941E-004  3.345006424078088E-004 
 3.387081425286466E-004  3.429685664858612E-004  3.472825799793645E-004  3.516508570825415E-004 
 3.560740803475769E-004  3.605529409121048E-004  3.650881386072007E-004  3.696803820667319E-004 
 3.743303888380815E-004  3.790388854942682E-004  3.838066077474740E-004  3.886343005640006E-004 
 3.935227182806736E-004  3.984726247227055E-004  4.034847933230495E-004  4.085600072432465E-004 
 4.136990594957965E-004  4.189027530680709E-004  4.241719010477757E-004  4.295073267500039E-004 
 4.349098638458763E-004  4.403803564928053E-004  4.459196594663979E-004  4.515286382940117E-004 
 4.572081693900017E-004  4.629591401926561E-004  4.687824493028628E-004  4.746790066245193E-004 
 4.806497335067019E-004  4.866955628876349E-004  4.928174394404588E-004  4.990163197208398E-004 
 5.052931723164346E-004  5.116489779982300E-004  5.180847298737959E-004  5.246014335424562E-004 
 5.312001072524169E-004  5.378817820598718E-004  5.446475019901015E-004  5.514983242006118E-004 
 5.584353191463103E-004  5.654595707467705E-004  5.725721765555972E-004  5.797742479319169E-004 
 5.870669102140363E-004  5.944513028952737E-004  6.019285798020084E-004  6.094999092739715E-004 
 6.171664743467947E-004  6.249294729368703E-004  6.327901180285209E-004  6.407496378635345E-004 
 6.488092761330807E-004  6.569702921720343E-004  6.652339611557568E-004  6.736015742993388E-004 
 6.820744390593575E-004  6.906538793381718E-004  6.993412356907777E-004  7.081378655342816E-004 
 7.170451433599930E-004  7.260644609481934E-004  7.351972275856078E-004  7.444448702856015E-004 
 7.538088340111630E-004  7.632905819006746E-004  7.728915954965344E-004  7.826133749766520E-004 
 7.924574393888476E-004  8.024253268882156E-004  8.125185949774568E-004  8.227388207502444E-004 
 8.330876011376510E-004  8.435665531576637E-004  8.541773141678573E-004  8.649215421212272E-004 
 8.758009158252492E-004  8.868171352042013E-004  8.979719215647708E-004  9.092670178650238E-004 
 9.207041889867364E-004  9.322852220111644E-004  9.440119264982824E-004  9.558861347695213E-004 
 9.679097021940841E-004  9.800845074788424E-004  9.924124529618909E-004  1.004895464909795E-003 
 1.017535493818565E-003  1.030334514718438E-003  1.043294527482467E-003  1.056417557139014E-003 
 1.069705654188163E-003  1.083160894922111E-003  1.096785381749599E-003  1.110581243524413E-003 
 1.124550635878022E-003  1.138695741556403E-003  1.153018770761097E-003  1.167521961494557E-003 
 1.182207579909843E-003  1.197077920664710E-003  1.212135307280154E-003  1.227382092503469E-003 
 1.242820658675867E-003  1.258453418104721E-003  1.274282813440496E-003  1.290311318058421E-003 
 1.306541436444950E-003  1.322975704589104E-003  1.339616690378715E-003  1.356466994001669E-003 
 1.373529248352189E-003  1.390806119442230E-003  1.408300306818052E-003  1.426014543982024E-003 
 1.443951598819742E-003  1.462114274032517E-003  1.480505407575305E-003  1.499127873100138E-003 
 1.517984580405143E-003  1.537078475889199E-003  1.556412543012324E-003  1.575989802761839E-003 
 1.595813314124413E-003  1.615886174564026E-003  1.636211520505961E-003  1.656792527826873E-003 
 1.677632412351028E-003  1.698734430352783E-003  1.720101879065383E-003  1.741738097196160E-003 
 1.763646465448220E-003  1.785830407048670E-003  1.808293388283524E-003  1.831038919039298E-003 
 1.854070553351449E-003  1.877391889959698E-003  1.901006572870335E-003  1.924918291925612E-003 
 1.949130783380280E-003  1.973647830485387E-003  1.998473264079426E-003  2.023610963186902E-003 
 2.049064855624445E-003  2.074838918614535E-003  2.100937179406949E-003  2.127363715908037E-003 
 2.154122657317889E-003  2.181218184775546E-003  2.208654532012295E-003  2.236435986013214E-003 
 2.264566887687012E-003  2.293051632544308E-003  2.321894671384440E-003  2.351100510990906E-003 
 2.380673714835566E-003  2.410618903791688E-003  2.440940756855968E-003  2.471644011879640E-003 
 2.502733466308768E-003  2.534213977933856E-003  2.566090465648896E-003  2.598367910219944E-003 
 2.631051355063385E-003  2.664145907033971E-003  2.697656737222776E-003  2.731589081765199E-003 
 2.765948242659108E-003  2.800739588593299E-003  2.835968555786357E-003  2.871640648836079E-003 
 2.907761441579577E-003  2.944336577964211E-003  2.981371772929452E-003  3.018872813299861E-003 
 3.056845558689292E-003  3.095295942416467E-003  3.134229972432075E-003  3.173653732257516E-003 
 3.213573381935471E-003  3.253995158992420E-003  3.294925379413262E-003  3.336370438628219E-003 
 3.378336812512110E-003  3.420831058396235E-003  3.463859816092970E-003  3.507429808933243E-003 
 3.551547844817087E-003  3.596220817277364E-003  3.641455706556909E-003  3.687259580699202E-003 
 3.733639596652764E-003  3.780603001389455E-003  3.828157133036810E-003  3.876309422024648E-003 
 3.925067392246091E-003  3.974438662233178E-003  4.024430946347303E-003  4.075052055984563E-003 
 4.126309900796328E-003  4.178212489925135E-003  4.230767933256129E-003  4.283984442684262E-003 
 4.337870333397398E-003  4.392434025175594E-003  4.447684043706699E-003  4.503629021918513E-003 
 4.560277701327711E-003  4.617638933405698E-003  4.675721680961689E-003  4.734535019543160E-003 
 4.794088138853916E-003  4.854390344190021E-003  4.915451057893740E-003  4.977279820825817E-003 
 5.039886293856253E-003  5.103280259373827E-003  5.167471622814638E-003  5.232470414209816E-003 
 5.298286789752759E-003  5.364931033386048E-003  5.432413558408336E-003  5.500744909101461E-003 
 5.569935762377986E-003  5.639996929449505E-003  5.710939357515914E-003  5.782774131475925E-003 
 5.855512475659129E-003  5.929165755579790E-003  6.003745479712740E-003  6.079263301291610E-003 
 6.155731020129665E-003  6.233160584463541E-003  6.311564092820209E-003  6.390953795907357E-003 
 6.471342098527612E-003  6.552741561516810E-003  6.635164903706646E-003  6.718625003912039E-003 
 6.803134902943441E-003  6.888707805644515E-003  6.975357082955406E-003  7.063096274001977E-003 
 7.151939088211347E-003  7.241899407453983E-003  7.332991288212794E-003  7.425228963779473E-003 
 7.518626846478483E-003  7.613199529919026E-003  7.708961791275294E-003  7.805928593595454E-003 
 7.904115088139648E-003  8.003536616747403E-003  8.104208714234857E-003  8.206147110822048E-003 
 8.309367734590839E-003  8.413886713973704E-003  8.519720380273803E-003  8.626885270216834E-003 
 8.735398128534870E-003  8.845275910582796E-003  8.956535784987604E-003  9.069195136331023E-003 
 9.183271567865921E-003  9.298782904266809E-003  9.415747194415010E-003  9.534182714218825E-003 
 9.654107969469174E-003  9.775541698731195E-003  9.898502876272138E-003  1.002301071502616E-002 
 1.014908466959638E-002  1.027674443929468E-002  1.040600997121984E-002  1.053690146337418E-002 
 1.066943936781968E-002  1.080364439387354E-002  1.093953751134411E-002  1.107713995380751E-002 
 1.121647322192530E-002  1.135755908680412E-002  1.150041959339738E-002  1.164507706394988E-002 
 1.179155410148573E-002  1.193987359334004E-002  1.209005871473517E-002  1.224213293240189E-002 
 1.239612000824610E-002  1.255204400306172E-002  1.270992928029014E-002  1.286980050982716E-002 
 1.303168267187766E-002  1.319560106085878E-002  1.336158128935234E-002  1.352964929210671E-002 
 1.369983133008926E-002  1.387215399458965E-002  1.404664421137480E-002  1.422332924489612E-002 
 1.440223670254953E-002  1.458339453898930E-002  1.476683106049593E-002  1.495257492939910E-002 
 1.514065516855626E-002  1.533110116588740E-002  1.552394267896708E-002  1.571920983967406E-002 
 1.591693315889945E-002  1.611714353131419E-002  1.631987224019628E-002  1.652515096231893E-002 
 1.673301177290013E-002  1.694348715061440E-002  1.715660998266777E-002  1.737241356993633E-002 
 1.759093163216963E-002  1.781219831325949E-002  1.803624818657499E-002  1.826311626036468E-002 
 1.849283798322665E-002  1.872544924964747E-002  1.896098640561077E-002  1.919948625427636E-002 
 1.944098606173086E-002  1.968552356281049E-002  1.993313696699732E-002  2.018386496438953E-002 
 2.043774673174679E-002  2.069482193861184E-002  2.095513075350873E-002  2.121871385021940E-002 
 2.148561241413897E-002  2.175586814871106E-002  2.202952328194405E-002  2.230662057300926E-002 
 2.258720331892218E-002  2.287131536130771E-002  2.315900109325046E-002  2.345030546623142E-002 
 2.374527399715149E-002  2.404395277544375E-002  2.434638847027498E-002  2.465262833783777E-002 
 2.496272022873454E-002  2.527671259545410E-002  2.559465449994256E-002  2.591659562126937E-002 
 2.624258626338970E-002  2.657267736300467E-002  2.690692049752015E-002  2.724536789310591E-002 
 2.758807243285610E-002  2.793508766505227E-002  2.828646781153052E-002  2.864226777615357E-002 
 2.900254315338980E-002  2.936735023699987E-002  2.973674602883279E-002  3.011078824773263E-002 
 3.048953533855703E-002  3.087304648130954E-002  3.126138160038645E-002  3.165460137394017E-002 
 3.205276724336038E-002  3.245594142287422E-002  3.286418690926753E-002  3.327756749172810E-002 
 3.369614776181297E-002  3.411999312354100E-002  3.454916980361224E-002  3.498374486175613E-002 
 3.542378620120965E-002  3.586936257932734E-002  3.632054361832485E-002  3.677739981615746E-002 
 3.724000255753554E-002  3.770842412507860E-002  3.818273771060957E-002  3.866301742659123E-002 
 3.914933831770631E-002  3.964177637258350E-002  4.014040853567070E-002  4.064531271925788E-002 
 4.115656781565100E-002  4.167425370949900E-002  4.219845129027605E-002  4.272924246492062E-002 
 4.326671017063360E-002  4.381093838783760E-002  4.436201215329874E-002  4.492001757341404E-002 
 4.548504183766569E-002  4.605717323224447E-002  4.663650115384486E-002  4.722311612363325E-002 
 4.781710980139212E-002  4.841857499984214E-002  4.902760569914419E-002  4.964429706158421E-002 
 5.026874544644221E-002  5.090104842504879E-002  5.154130479603075E-002  5.218961460074865E-002 
 5.284607913892856E-002  5.351080098449012E-002  5.418388400157406E-002  5.486543336077123E-002 
 5.555555555555555E-002  5.625435841892415E-002  5.696195114024608E-002  5.767844428232364E-002 
 5.840394979866805E-002  5.913858105099219E-002  5.988245282692398E-002  6.063568135794178E-002 
 6.139838433753601E-002  6.217068093959896E-002  6.295269183704591E-002  6.374453922067069E-002 
 6.454634681823797E-002  6.535823991381617E-002  6.618034536735327E-002  6.701279163449893E-002 
 6.785570878667611E-002  6.870922853140474E-002  6.957348423288140E-002  7.044861093281779E-002 
 7.133474537154119E-002  7.223202600936063E-002  7.314059304820122E-002  7.406058845351131E-002 
 7.499215597644467E-002  7.593544117632202E-002  7.689059144337509E-002  7.785775602177632E-002 
 7.883708603295878E-002  7.982873449922918E-002  8.083285636767784E-002  8.184960853438977E-002 
 8.287914986895949E-002  8.392164123931518E-002  8.497724553685443E-002  8.604612770189629E-002 
 8.712845474945384E-002  8.822439579533022E-002  8.933412208254354E-002  9.045780700808395E-002 
 9.159562615000712E-002  9.274775729486906E-002  9.391438046550510E-002  9.509567794915919E-002 
 9.629183432596647E-002  9.750303649779436E-002  9.872947371744660E-002  9.997133761823385E-002 
 1.012288222439172E-001  1.025021240790278E-001  1.037914420795679E-001  1.050969777040983E-001 
 1.064189349452165E-001  1.077575203614308E-001  1.091129431094360E-001  1.104854149767940E-001 
 1.118751504150265E-001  1.132823665731231E-001  1.147072833314715E-001  1.161501233362143E-001 
 1.176111120340375E-001  1.190904777073978E-001  1.205884515101913E-001  1.221052675038724E-001 
 1.236411626940261E-001  1.251963770674005E-001  1.267711536294058E-001  1.283657384420836E-001 
 1.299803806625551E-001  1.316153325819523E-001  1.332708496648388E-001  1.349471905891272E-001 
 1.366446172864973E-001  1.383633949833240E-001  1.401037922421194E-001  1.418660810034959E-001 
 1.436505366286581E-001  1.454574379424279E-001  1.472870672768115E-001  1.491397105151151E-001 
 1.510156571366136E-001  1.529152002617837E-001  1.548386366981029E-001  1.567862669864278E-001 
 1.587583954479536E-001  1.607553302317645E-001  1.627773833629836E-001  1.648248707915260E-001 
 1.668981124414685E-001  1.689974322610370E-001  1.711231582732239E-001  1.732756226270442E-001 
 1.754551616494316E-001  1.776621158977930E-001  1.798968302132202E-001  1.821596537743707E-001 
 1.844509401520306E-001  1.867710473643572E-001  1.891203379328232E-001  1.914991789388598E-001 
 1.939079420812134E-001  1.963470037340263E-001  1.988167450056434E-001  2.013175517981634E-001 
 2.038498148677359E-001  2.064139298856169E-001  2.090102974999953E-001  2.116393233985924E-001 
 2.143014183720541E-001  2.169969983781364E-001  2.197264846066987E-001  2.224903035455183E-001 
 2.252888870469265E-001  2.281226723952895E-001  2.309921023753339E-001  2.338976253413311E-001 
 2.368396952871568E-001  2.398187719172247E-001  2.428353207183198E-001  2.458898130323299E-001 
 2.489827261298925E-001  2.521145432849726E-001  2.552857538503717E-001  2.584968533341927E-001 
 2.617483434772636E-001  2.650407323315335E-001  2.683745343394602E-001  2.717502704143893E-001 
 2.751684680219507E-001  2.786296612624757E-001  2.821343909544490E-001  2.856832047190162E-001 
 2.892766570655472E-001  2.929153094782828E-001  2.965997305040655E-001  3.003304958411759E-001 
 3.041081884292892E-001  3.079333985405569E-001  3.118067238718419E-001  3.157287696381082E-001 
 3.197001486669850E-001  3.237214814945266E-001  3.277933964621677E-001  3.319165298149068E-001 
 3.360915258007194E-001  3.403190367712214E-001  3.445997232836040E-001  3.489342542038426E-001 
 3.533233068112127E-001  3.577675669041147E-001  3.622677289072285E-001  3.668244959800241E-001 
 3.714385801266262E-001  3.761107023070707E-001  3.808415925499546E-001  3.856319900665020E-001 
 3.904826433660722E-001  3.953943103731110E-001  4.003677585455814E-001  4.054037649948798E-001 
 4.105031166072584E-001  4.156666101667825E-001  4.208950524798249E-001  4.261892605011349E-001 
 4.315500614614877E-001  4.369782929969384E-001  4.424748032797100E-001  4.480404511507153E-001 
 4.536761062537581E-001  4.593826491714152E-001  4.651609715626258E-001  4.710119763020212E-001 
 4.769365776209942E-001  4.829357012505556E-001  4.890102845659785E-001  4.951612767332632E-001 
 5.013896388574517E-001  5.076963441327960E-001  5.140823779948271E-001  5.205487382743298E-001 
 5.270964353532515E-001  5.337264923225840E-001  5.404399451422159E-001  5.472378428028101E-001 
 5.541212474897070E-001  5.610912347488919E-001  5.681488936550561E-001  5.752953269817609E-001 
 5.825316513737540E-001  5.898589975214450E-001  5.972785103375753E-001  6.047913491361193E-001 
 6.123986878134224E-001  6.201017150316314E-001  6.279016344044216E-001  6.357996646850623E-001 
 6.437970399568557E-001  6.518950098259563E-001  6.600948396166331E-001  6.683978105689744E-001 
 6.768052200390818E-001  6.853183817017926E-001  6.939386257559340E-001  7.026672991321790E-001 
 7.115057657035023E-001  7.204554064982852E-001  7.295176199161127E-001  7.386938219462660E-001 
 7.479854463889839E-001  7.573939450794869E-001  7.669207881148385E-001  7.765674640836471E-001 
 7.863354802986560E-001  7.962263630322749E-001  8.062416577550514E-001  8.163829293771634E-001 
 8.266517624929360E-001  8.370497616284329E-001  8.475785514921766E-001  8.582397772290015E-001 
 8.690351046771206E-001  8.799662206284129E-001  8.910348330919819E-001  9.022426715610476E-001 
 9.135914872831701E-001  9.250830535338969E-001  9.367191658938361E-001  9.485016425292145E-001 
 9.604323244759814E-001  9.725130759274605E-001  9.847457845256469E-001  9.971323616561476E-001 
 1.009674742746837E+000  1.022374887570282E+000  1.035234780549945E+000  1.048256431070271E+000 
 1.061441873790648E+000  1.074793168963323E+000  1.088312402755334E+000  1.102001687574463E+000 
 1.115863162399315E+000  1.129898993113535E+000  1.144111372844224E+000  1.158502522304635E+000 
 1.173074690141146E+000  1.187830153284630E+000  1.202771217306226E+000  1.217900216777582E+000 
 1.233219515635648E+000  1.248731507552035E+000  1.264438616307040E+000  1.280343296168367E+000 
 1.296448032274596E+000  1.312755341023514E+000  1.329267770465286E+000  1.345987900700610E+000 
 1.362918344283854E+000  1.380061746631269E+000  1.397420786434355E+000  1.414998176078394E+000 
 1.432796662066281E+000  1.450819025447666E+000  1.469068082253489E+000  1.487546683936009E+000 
 1.506257717814328E+000  1.525204107525561E+000  1.544388813481649E+000  1.563814833331925E+000 
 1.583485202431518E+000  1.603402994315613E+000  1.623571321179719E+000  1.643993334365943E+000 
 1.664672224855390E+000  1.685611223766776E+000  1.706813602861274E+000  1.728282675053759E+000 
 1.750021794930443E+000  1.772034359273028E+000  1.794323807589485E+000  1.816893622651454E+000 
 1.839747331038462E+000  1.862888503688942E+000  1.886320756458197E+000  1.910047750683401E+000 
 1.934073193755669E+000  1.958400839699363E+000  1.983034489758662E+000  2.007977992991496E+000 
 2.033235246871002E+000  2.058810197894478E+000  2.084706842200056E+000  2.110929226191100E+000 
 2.137481447168452E+000  2.164367653970668E+000  2.191592047622253E+000  2.219158881990107E+000 
 2.247072464448191E+000  2.275337156550544E+000  2.303957374712823E+000  2.332937590902334E+000 
 2.362282333336821E+000  2.391996187191998E+000  2.422083795317973E+000  2.452549858964738E+000 
 2.483399138516714E+000  2.514636454236598E+000  2.546266687018528E+000  2.578294779150721E+000 
 2.610725735087742E+000  2.643564622232428E+000  2.676816571727712E+000  2.710486779258359E+000 
 2.744580505862788E+000  2.779103078755156E+000  2.814059892157704E+000  2.849456408143650E+000 
 2.885298157490638E+000  2.921590740544914E+000  2.958339828096427E+000  2.995551162264865E+000 
 3.033230557396902E+000  3.071383900974693E+000  3.110017154535786E+000  3.149136354604659E+000 
 3.188747613635902E+000  3.228857120969332E+000  3.269471143797081E+000  3.310596028142833E+000 
 3.352238199853447E+000  3.394404165602965E+000  3.437100513909327E+000  3.480333916163829E+000 
 3.524111127673519E+000  3.568438988716775E+000  3.613324425612056E+000  3.658774451800205E+000 
 3.704796168940289E+000  3.751396768019231E+000  3.798583530475457E+000  3.846363829336591E+000 
 3.894745130371548E+000  3.943734993257052E+000  3.993341072758837E+000  4.043571119927764E+000 
 4.094432983310880E+000  4.145934610177829E+000  4.198084047762594E+000  4.250889444520883E+000 
 4.304359051403387E+000  4.358501223144953E+000  4.413324419570074E+000  4.468837206914739E+000 
 4.525048259164897E+000  4.581966359411840E+000  4.639600401224516E+000  4.697959390039222E+000 
 4.757052444566703E+000  4.816888798216939E+000  4.877477800541940E+000  4.938828918696574E+000 
 5.000951738917879E+000  5.063855968022914E+000  5.127551434925438E+000  5.192048092171763E+000 
 5.257356017495786E+000  5.323485415393716E+000  5.390446618718524E+000  5.458250090294448E+000 
 5.526906424551886E+000  5.596426349182729E+000  5.666820726816649E+000  5.738100556718381E+000 
 5.810276976506346E+000  5.883361263893002E+000  5.957364838446920E+000  6.032299263377200E+000 
 6.108176247340200E+000  6.185007646269019E+000  6.262805465226074E+000  6.341581860278835E+000 
 6.421349140399315E+000  6.502119769387328E+000  6.583906367817963E+000  6.666721715013642E+000 
 6.750578751040831E+000  6.835490578732030E+000  6.921470465733081E+000  7.008531846576232E+000 
 7.096688324779390E+000  7.185953674971610E+000  7.276341845045478E+000  7.367866958336482E+000 
 7.460543315829751E+000  7.554385398394729E+000  7.649407869047707E+000  7.745625575243064E+000 
 7.843053551193167E+000  7.941707020217446E+000  8.041601397121175E+000  8.142752290603955E+000 
 8.245175505698700E+000  8.348887046241167E+000  8.453903117370535E+000  8.560240128061606E+000 
 8.667914693688617E+000  8.776943638621525E+000  8.887343998854815E+000  8.999133024669353E+000 
 9.112328183327888E+000  9.226947161804228E+000  9.343007869546970E+000  9.460528441277841E+000 
 9.579527239825241E+000  9.700022858993581E+000  9.822034126468470E+000  9.945580106758705E+000 
 1.007068010417508E+001  1.019735366584667E+001  1.032562058477524E+001  1.045550090292780E+001 
 1.058701491436833E+001  1.072018316842870E+001  1.085502647291950E+001  1.099156589738143E+001 
 1.112982277637732E+001  1.126981871282583E+001  1.141157558137685E+001  1.155511553182948E+001 
 1.170046099259304E+001  1.184763467419145E+001  1.199665957281189E+001  1.214755897389801E+001 
 1.230035645578818E+001  1.245507589339985E+001  1.261174146195989E+001  1.277037764078216E+001 
 1.293100921709235E+001  1.309366128990103E+001  1.325835927392555E+001  1.342512890356093E+001 
 1.359399623690113E+001  1.376498765981057E+001  1.393812989004692E+001  1.411344998143596E+001 
 1.429097532809861E+001  1.447073366873149E+001  1.465275309094107E+001  1.483706203563234E+001 
 1.502368930145294E+001  1.521266404929281E+001  1.540401580684078E+001  1.559777447319831E+001 
 1.579397032355116E+001  1.599263401390019E+001  1.619379658585112E+001  1.639748947146513E+001 
 1.660374449817003E+001  1.681259389373333E+001  1.702407029129803E+001  1.723820673448147E+001 
 1.745503668253857E+001  1.767459401558989E+001  1.789691303991536E+001  1.812202849331491E+001 
 1.834997555053605E+001  1.858078982877028E+001  1.881450739321820E+001  1.905116476272469E+001 
 1.929079891548528E+001  1.953344729482382E+001  1.977914781504328E+001  2.002793886734987E+001 
 2.027985932585160E+001  2.053494855363273E+001  2.079324640890401E+001  2.105479325123086E+001 
 2.131962994783957E+001  2.158779788000271E+001  2.185933894950536E+001  2.213429558519200E+001 
 2.241271074959640E+001  2.269462794565447E+001  2.298009122350160E+001  2.326914518735579E+001 
 2.356183500248692E+001  2.385820640227411E+001  2.415830569535159E+001  2.446217977284438E+001 
 2.476987611569542E+001  2.508144280208420E+001  2.539692851493939E+001  2.571638254954553E+001 
 2.603985482124539E+001  2.636739587323961E+001  2.669905688448385E+001  2.703488967768596E+001 
 2.737494672740316E+001  2.771928116824122E+001  2.806794680315720E+001  2.842099811186579E+001 
 2.877849025935233E+001  2.914047910449225E+001  2.950702120877895E+001  2.987817384516208E+001 
 3.025399500699608E+001  3.063454341710215E+001  3.101987853694366E+001  3.141006057591695E+001 
 3.180515050075955E+001  3.220521004507592E+001  3.261030171898383E+001  3.302048881888157E+001 
 3.343583543733790E+001  3.385640647310711E+001  3.428226764126909E+001  3.471348548349783E+001 
 3.515012737845856E+001  3.559226155233560E+001  3.603995708949328E+001  3.649328394326999E+001 
 3.695231294690899E+001  3.741711582462608E+001  3.788776520281642E+001  3.836433462140302E+001 
 3.884689854532699E+001  3.933553237618329E+001  3.983031246400222E+001  4.033131611917896E+001 
 4.083862162455411E+001  4.135230824764484E+001  4.187245625303118E+001  4.239914691489732E+001 
 4.293246252973055E+001  4.347248642918092E+001  4.401930299308123E+001  4.457299766263216E+001 
 4.513365695375244E+001  4.570136847059680E+001  4.627622091924493E+001  4.685830412156130E+001 
 4.744770902923064E+001  4.804452773796899E+001  4.864885350191366E+001  4.926078074819495E+001 
 4.988040509168991E+001  5.050782334996291E+001  5.114313355839339E+001  5.178643498549380E+001 
 5.243782814842110E+001  5.309741482868209E+001  5.376529808803759E+001  5.444158228460579E+001 
 5.512637308916813E+001  5.581977750168122E+001  5.652190386799506E+001  5.723286189678299E+001 
 5.795276267668356E+001  5.868171869365806E+001  5.941984384856745E+001  6.016725347496867E+001 