<UPF version="2.0.1">
  <PP_INFO>
    Generated using "atomic" code by A. Dal Corso  v.5.1.2
    Author: ADC
    Generation date: 30Jul2016
    Pseudopotential type: PAW
    Element:  B
    Functional:  SLA  PW   PBX  PBC

    Suggested minimum cutoff for wavefunctions:  43. Ry
    Suggested minimum cutoff for charge density: 325. Ry
    The Pseudo was generated with a Scalar-Relativistic Calculation
    Local Potential by smoothing AE potential with Bessel fncs, cutoff radius:   1.2000
    Pseudopotential contains additional information for GIPAW reconstruction.

    Valence configuration: 
    nl pn  l   occ       Rcut    Rcut US       E pseu
    2S  1  0  2.00      1.000      1.200    -0.694057
    2P  2  1  1.00      1.000      1.400    -0.265108
    Generation configuration:
    2S  1  0  2.00      1.000      1.200    -0.694053
    2S  1  0  0.00      1.000      1.200     3.000000
    2P  2  1  1.00      1.000      1.400    -0.265108
    2P  2  1  0.00      1.000      1.400     1.500000

    Pseudization used: troullier-martins
<PP_INPUTFILE>
 &input
   title='B',
   zed=5.,
   rel=1,
   config='[He] 2s2 2p1',
   iswitch=3,
   dft='PBE'
 /
 &inputp
   lpaw=.true.,
   pseudotype=3,
   file_pseudopw='B.pbe-n-kjpaw_psl.1.0.0.UPF',
   author='ADC',
   lloc=-1,
   rcloc=1.2
   which_augfun='PSQ',
   rmatch_augfun_nc=.true.,
   nlcc=.true.,
   new_core_ps=.true.,
   rcore=0.9,
   tm=.true.
 /
4
2S  1  0  2.00  0.00  1.00  1.20  0.0
2S  1  0  0.00  3.00  1.00  1.20  0.0
2P  2  1  1.00  0.00  1.00  1.40  0.0
2P  2  1  0.00  1.50  1.00  1.40  0.0
</PP_INPUTFILE>
  </PP_INFO>
  <!--                               -->
  <!-- END OF HUMAN READABLE SECTION -->
  <!--                               -->
  <PP_HEADER generated='Generated using "atomic" code by A. Dal Corso  v.5.1.2'
             author="ADC"
             date="30Jul2016"
             comment=""
             element=" B"
             pseudo_type="PAW"
             relativistic="scalar"
             is_ultrasoft="T"
             is_paw="T"
             is_coulomb="F"
             has_so="F"
             has_wfc="T"
             has_gipaw="T"
             paw_as_gipaw="T"
             core_correction="T"
             functional=" SLA  PW   PBX  PBC"
             z_valence="3.000000000000000E+000"
             total_psenergy="-1.096731921324388E+001"
             wfc_cutoff="4.258872771444758E+001"
             rho_cutoff="3.245670378597175E+002"
             l_max="1"
             l_max_rho="2"
             l_local="-1"
             mesh_size="1059"
             number_of_wfc="2"
             number_of_proj="4"/>
  <PP_MESH dx="1.250000000000000E-002" mesh="1059" xmin="-7.000000000000000E+000" rmax="1.000000000000000E+002"
zmesh="5.000000000000000E+000">
    <PP_R type="real" size="1059" columns="4">
 1.823763931109032E-004  1.846704057338044E-004  1.869932734833164E-004  1.893453593122508E-004 
 1.917270307388040E-004  1.941386599039818E-004  1.965806236297477E-004  1.990533034779023E-004 
 2.015570858097021E-004  2.040923618462309E-004  2.066595277295274E-004  2.092589845844837E-004 
 2.118911385815220E-004  2.145564010000594E-004  2.172551882927716E-004  2.199879221506637E-004 
 2.227550295689607E-004  2.255569429138265E-004  2.283940999899215E-004  2.312669441088115E-004 
 2.341759241582349E-004  2.371214946722426E-004  2.401041159022202E-004  2.431242538888029E-004 
 2.461823805346962E-004  2.492789736784099E-004  2.524145171689229E-004  2.555895009412849E-004 
 2.588044210931696E-004  2.620597799623920E-004  2.653560862053983E-004  2.686938548767454E-004 
 2.720736075095788E-004  2.754958721971234E-004  2.789611836751998E-004  2.824700834057763E-004 
 2.860231196615749E-004  2.896208476117391E-004  2.932638294085806E-004  2.969526342754174E-004 
 3.006878385955145E-004  3.044700260021463E-004  3.082997874697901E-004  3.121777214064664E-004 
 3.161044337472434E-004  3.200805380489129E-004  3.241066555858613E-004  3.281834154471452E-004 
 3.323114546347868E-004  3.364914181633082E-004  3.407239591605148E-004  3.450097389695485E-004 
 3.493494272522239E-004  3.537437020936641E-004  3.581932501082540E-004  3.626987665469231E-004 
 3.672609554057814E-004  3.718805295361202E-004  3.765582107557954E-004  3.812947299620153E-004 
 3.860908272455419E-004  3.909472520063334E-004  3.958647630706393E-004  4.008441288095678E-004 
 4.058861272591468E-004  4.109915462418918E-004  4.161611834899058E-004  4.213958467695268E-004 
 4.266963540075416E-004  4.320635334189909E-004  4.374982236365770E-004  4.430012738417034E-004 
 4.485735438971607E-004  4.542159044814814E-004  4.599292372249872E-004  4.657144348475427E-004 
 4.715724012980466E-004  4.775040518956747E-004  4.835103134729007E-004  4.895921245203166E-004 
 4.957504353332717E-004  5.019862081603597E-004  5.083004173537717E-004  5.146940495215400E-004 
 5.211681036816996E-004  5.277235914183843E-004  5.343615370398901E-004  5.410829777387253E-004 
 5.478889637536737E-004  5.547805585338977E-004  5.617588389051026E-004  5.688248952377935E-004 
 5.759798316176486E-004  5.832247660180335E-004  5.905608304746893E-004  5.979891712626121E-004 
 6.055109490751630E-004  6.131273392054286E-004  6.208395317298617E-004  6.286487316942361E-004 
 6.365561593019333E-004  6.445630501046053E-004  6.526706551952296E-004  6.608802414035964E-004 
 6.691930914942544E-004  6.776105043669423E-004  6.861337952595469E-004  6.947642959536107E-004 
 7.035033549824257E-004  7.123523378417460E-004  7.213126272031461E-004  7.303856231300687E-004 
 7.395727432965864E-004  7.488754232089160E-004  7.582951164297215E-004  7.678332948052327E-004 
 7.774914486952261E-004  7.872710872058967E-004  7.971737384256581E-004  8.072009496639116E-004 
 8.173542876928133E-004  8.276353389920874E-004  8.380457099969159E-004  8.485870273489480E-004 
 8.592609381504679E-004  8.700691102217538E-004  8.810132323616813E-004  8.920950146116003E-004 
 9.033161885225332E-004  9.146785074257346E-004  9.261837467066491E-004  9.378337040823222E-004 
 9.496301998822955E-004  9.615750773330371E-004  9.736702028459526E-004  9.859174663090103E-004 
 9.983187813820435E-004  1.010876085795763E-003  1.023591341654530E-003  1.036466535742945E-003 
 1.049503679836277E-003  1.062704811014815E-003  1.076071991982164E-003  1.089607311387545E-003 
 1.103312884152154E-003  1.117190851799620E-003  1.131243382790622E-003  1.145472672861717E-003 
 1.159880945368428E-003  1.174470451632650E-003  1.189243471294419E-003  1.204202312668112E-003 
 1.219349313103128E-003  1.234686839349100E-003  1.250217287925712E-003  1.265943085497149E-003 
 1.281866689251277E-003  1.297990587283577E-003  1.314317298985923E-003  1.330849375440235E-003 
 1.347589399817093E-003  1.364539987779365E-003  1.381703787890906E-003  1.399083482030402E-003 
 1.416681785810425E-003  1.434501449001740E-003  1.452545255962978E-003  1.470816026075687E-003 
 1.489316614184868E-003  1.508049911045055E-003  1.527018843771992E-003  1.546226376300014E-003 
 1.565675509845155E-003  1.585369283374099E-003  1.605310774079032E-003  1.625503097858442E-003 
 1.645949409804006E-003  1.666652904693562E-003  1.687616817490306E-003  1.708844423848269E-003 
 1.730339040624127E-003  1.752104026395486E-003  1.774142781985652E-003  1.796458750995023E-003 
 1.819055420339165E-003  1.841936320793628E-003  1.865105027545665E-003  1.888565160752842E-003 
 1.912320386108701E-003  1.936374415415539E-003  1.960731007164366E-003  1.985393967122202E-003 
 2.010367148926717E-003  2.035654454688374E-003  2.061259835600150E-003  2.087187292554901E-003 
 2.113440876770531E-003  2.140024690422986E-003  2.166942887287230E-003  2.194199673386298E-003 
 2.221799307648461E-003  2.249746102572733E-003  2.278044424902675E-003  2.306698696308724E-003 
 2.335713394079091E-003  2.365093051819324E-003  2.394842260160724E-003  2.424965667477620E-003 
 2.455467980613687E-003  2.486353965617419E-003  2.517628448486800E-003  2.549296315923414E-003 
 2.581362516095974E-003  2.613832059413496E-003  2.646710019308188E-003  2.680001533028165E-003 
 2.713711802440187E-003  2.747846094842429E-003  2.782409743787524E-003  2.817408149915947E-003 
 2.852846781799851E-003  2.888731176797576E-003  2.925066941918845E-003  2.961859754700880E-003 
 2.999115364095543E-003  3.036839591367589E-003  3.075038331004286E-003  3.113717551636418E-003 
 3.152883296970897E-003  3.192541686735125E-003  3.232698917633175E-003  3.273361264314086E-003 
 3.314535080352251E-003  3.356226799240192E-003  3.398442935393817E-003  3.441190085170276E-003 
 3.484474927898703E-003  3.528304226923832E-003  3.572684830662807E-003  3.617623673675263E-003 
 3.663127777746836E-003  3.709204252986377E-003  3.755860298936882E-003  3.803103205700451E-003 
 3.850940355077386E-003  3.899379221719599E-003  3.948427374298557E-003  3.998092476687886E-003 
 4.048382289160878E-003  4.099304669603052E-003  4.150867574739948E-003  4.203079061380406E-003 
 4.255947287675435E-003  4.309480514392955E-003  4.363687106208555E-003  4.418575533012488E-003 
 4.474154371233120E-003  4.530432305176994E-003  4.587418128385786E-003  4.645120745010315E-003 
 4.703549171201821E-003  4.762712536520776E-003  4.822620085363375E-003  4.883281178406007E-003 
 4.944705294067880E-003  5.006902029992029E-003  5.069881104544989E-003  5.133652358335287E-003 
 5.198225755751069E-003  5.263611386517063E-003  5.329819467271097E-003  5.396860343160497E-003 
 5.464744489458514E-003  5.533482513201115E-003  5.603085154844365E-003  5.673563289942620E-003 
 5.744927930847887E-003  5.817190228430495E-003  5.890361473821458E-003  5.964453100176742E-003 
 6.039476684463700E-003  6.115443949270019E-003  6.192366764635379E-003  6.270257149906177E-003 
 6.349127275613591E-003  6.428989465375214E-003  6.509856197820687E-003  6.591740108541473E-003 
 6.674653992065216E-003  6.758610803854911E-003  6.843623662333207E-003  6.929705850932205E-003 
 7.016870820169008E-003  7.105132189747393E-003  7.194503750685933E-003  7.284999467472847E-003 
 7.376633480248003E-003  7.469420107012324E-003  7.563373845865017E-003  7.658509377268932E-003 
 7.754841566344402E-003  7.852385465191963E-003  7.951156315244264E-003  8.051169549647571E-003 
 8.152440795673245E-003  8.254985877159509E-003  8.358820816983983E-003  8.463961839567264E-003 
 8.570425373408037E-003  8.678228053650075E-003  8.787386724681484E-003  8.897918442766705E-003 
 9.009840478711565E-003  9.123170320561881E-003  9.237925676336025E-003  9.354124476791795E-003 
 9.471784878228185E-003  9.590925265322296E-003  9.711564254001995E-003  9.833720694354717E-003 
 9.957413673572790E-003  1.008266251893588E-002  1.020948680083088E-002  1.033790633580988E-002 
 1.046794118968648E-002  1.059961168067116E-002  1.073293838254603E-002  1.086794212787950E-002 
 1.100464401128145E-002  1.114306539269928E-002  1.128322790075547E-002  1.142515343612706E-002 
 1.156886417496770E-002  1.171438257237271E-002  1.186173136588774E-002  1.201093357906159E-002 
 1.216201252504360E-002  1.231499181022645E-002  1.246989533793469E-002  1.262674731215968E-002 
 1.278557224134151E-002  1.294639494219851E-002  1.310924054360487E-002  1.327413449051713E-002 
 1.344110254794995E-002  1.361017080500204E-002  1.378136567893252E-002  1.395471391928873E-002 
 1.413024261208592E-002  1.430797918403944E-002  1.448795140685029E-002  1.467018740154443E-002 
 1.485471564286678E-002  1.504156496373049E-002  1.523076455972206E-002  1.542234399366334E-002 
 1.561633320023063E-002  1.581276249063214E-002  1.601166255734412E-002  1.621306447890665E-002 
 1.641699972477976E-002  1.662350016026051E-002  1.683259805146208E-002  1.704432607035538E-002 
 1.725871729987410E-002  1.747580523908408E-002  1.769562380841746E-002  1.791820735497294E-002 
 1.814359065788251E-002  1.837180893374578E-002  1.860289784213270E-002  1.883689349115534E-002 
 1.907383244310993E-002  1.931375172018977E-002  1.955668881027001E-002  1.980268167276526E-002 
 2.005176874456075E-002  2.030398894601822E-002  2.055938168705729E-002  2.081798687331333E-002 
 2.107984491237287E-002  2.134499672008724E-002  2.161348372696586E-002  2.188534788464980E-002 
 2.216063167246679E-002  2.243937810406875E-002  2.272163073415275E-002  2.300743366526649E-002 
 2.329683155469940E-002  2.358986962146051E-002  2.388659365334393E-002  2.418705001408334E-002 
 2.449128565059639E-002  2.479934810032026E-002  2.511128549863946E-002  2.542714658640712E-002 
 2.574698071756085E-002  2.607083786683434E-002  2.639876863756606E-002  2.673082426960610E-002 
 2.706705664732254E-002  2.740751830770850E-002  2.775226244859106E-002  2.810134293694364E-002 
 2.845481431730273E-002  2.881273182029066E-002  2.917515137124548E-002  2.954212959895937E-002 
 2.991372384452702E-002  3.028999217030533E-002  3.067099336898569E-002  3.105678697278060E-002 
 3.144743326272553E-002  3.184299327809807E-002  3.224352882595537E-002  3.264910249079168E-002 
 3.305977764431731E-002  3.347561845536051E-002  3.389668989989404E-002  3.432305777118777E-002 
 3.475478869008903E-002  3.519195011543230E-002  3.563461035457970E-002  3.608283857409417E-002 
 3.653670481054695E-002  3.699627998146086E-002  3.746163589639141E-002  3.793284526814707E-002 
 3.840998172415085E-002  3.889311981794473E-002  3.938233504083881E-002  3.987770383370703E-002 
 4.037930359893109E-002  4.088721271249482E-002  4.140151053623056E-002  4.192227743021956E-002 
 4.244959476534862E-002  4.298354493602413E-002  4.352421137304660E-002  4.407167855664680E-002 
 4.462603202968596E-002  4.518735841102218E-002  4.575574540904450E-002  4.633128183537778E-002 
 4.691405761875957E-002  4.750416381909163E-002  4.810169264166844E-002  4.870673745158416E-002 
 4.931939278832132E-002  4.993975438052274E-002  5.056791916094929E-002  5.120398528162602E-002 
 5.184805212917833E-002  5.250022034036148E-002  5.316059181778535E-002  5.382926974583677E-002 
 5.450635860680253E-002  5.519196419719465E-002  5.588619364428149E-002  5.658915542282661E-002 
 5.730095937203802E-002  5.802171671273108E-002  5.875154006470659E-002  5.949054346434814E-002 
 6.023884238244046E-002  6.099655374221186E-002  6.176379593760398E-002  6.254068885177078E-002 
 6.332735387581068E-002  6.412391392773417E-002  6.493049347166995E-002  6.574721853731283E-002 
 6.657421673961593E-002  6.741161729873089E-002  6.825955106019879E-002  6.911815051539491E-002 
 6.998754982223108E-002  7.086788482611776E-002  7.175929308119036E-002  7.266191387180229E-002 
 7.357588823428847E-002  7.450135897900260E-002  7.543847071263141E-002  7.638736986078982E-002 
 7.734820469090030E-002  7.832112533535980E-002  7.930628381499859E-002  8.030383406283335E-002 
 8.131393194811987E-002  8.233673530070776E-002  8.337240393570168E-002  8.442109967843311E-002 
 8.548298638974536E-002  8.655822999159750E-002  8.764699849298992E-002  8.874946201621597E-002 
 8.986579282344434E-002  9.099616534363474E-002  9.214075619979321E-002  9.329974423656974E-002 
 9.447331054820293E-002  9.566163850681683E-002  9.686491379107252E-002  9.808332441518128E-002 
 9.931706075828198E-002  1.005663155941882E-001  1.018312841215099E-001  1.031121639941529E-001 
 1.044091553522033E-001  1.057224608531995E-001  1.070522857037981E-001  1.083988376918374E-001 
 1.097623272188053E-001  1.111429673327143E-001  1.125409737613912E-001  1.139565649461846E-001 
 1.153899620760973E-001  1.168413891223472E-001  1.183110728733631E-001  1.197992429702212E-001 
 1.213061319425267E-001  1.228319752447476E-001  1.243770112930041E-001  1.259414815023221E-001 
 1.275256303243548E-001  1.291297052855784E-001  1.307539570259695E-001  1.323986393381668E-001 
 1.340640092071279E-001  1.357503268502830E-001  1.374578557581944E-001  1.391868627357284E-001 
 1.409376179437427E-001  1.427103949413006E-001  1.445054707284145E-001  1.463231257893284E-001 
 1.481636441363436E-001  1.500273133541964E-001  1.519144246449938E-001  1.538252728737142E-001 
 1.557601566142810E-001  1.577193781962153E-001  1.597032437518754E-001  1.617120632642906E-001 
 1.637461506155965E-001  1.658058236360801E-001  1.678914041538415E-001  1.700032180450797E-001 
 1.721415952850117E-001  1.743068699994317E-001  1.764993805169191E-001  1.787194694217032E-001 
 1.809674836071920E-001  1.832437743301756E-001  1.855486972657107E-001  1.878826125626952E-001 
 1.902458849001428E-001  1.926388835441644E-001  1.950619824056666E-001  1.975155600987764E-001 
 2.000000000000000E-001  2.025156903081269E-001  2.050630241048859E-001  2.076423994163651E-001 
 2.102542192752050E-001  2.128988917835719E-001  2.155768301769264E-001  2.182884528885904E-001 
 2.210341836151296E-001  2.238144513825563E-001  2.266296906133653E-001  2.294803411944145E-001 
 2.323668485456567E-001  2.352896636897382E-001  2.382492433224718E-001  2.412460498841961E-001 
 2.442805516320340E-001  2.473532227130570E-001  2.504645432383730E-001  2.536149993581441E-001 
 2.568050833375483E-001  2.600352936336983E-001  2.633061349735244E-001  2.666181184326407E-001 
 2.699717615152008E-001  2.733675882347593E-001  2.768061291961503E-001  2.802879216783948E-001 
 2.838135097186516E-001  2.873834441972251E-001  2.909982829236403E-001  2.946585907238032E-001 
 2.983649395282542E-001  3.021179084615347E-001  3.059180839326759E-001  3.097660597268266E-001 
 3.136624370980338E-001  3.176078248631888E-001  3.216028394971567E-001  3.256481052291022E-001 
 3.297442541400256E-001  3.338919262615286E-001  3.380917696758184E-001  3.423444406169731E-001 
 3.466506035734793E-001  3.510109313920597E-001  3.554261053828077E-001  3.598968154256418E-001 
 3.644237600781020E-001  3.690076466845002E-001  3.736491914864445E-001  3.783491197347540E-001 
 3.831081658027793E-001  3.879270733011510E-001  3.928065951939697E-001  3.977474939164584E-001 
 4.027505414940954E-001  4.078165196632432E-001  4.129462199932975E-001  4.181404440103714E-001 
 4.234000033225350E-001  4.287257197466319E-001  4.341184254366886E-001  4.395789630139406E-001 
 4.451081856984939E-001  4.507069574426417E-001  4.563761530658608E-001  4.621166583915010E-001 
 4.679293703851984E-001  4.738151972950283E-001  4.797750587934196E-001  4.858098861208577E-001 
 4.919206222313902E-001  4.981082219399665E-001  5.043736520716300E-001  5.107178916125854E-001 
 5.171419318631694E-001  5.236467765927404E-001  5.302334421965216E-001  5.369029578544144E-001 
 5.436563656918090E-001  5.504947209424215E-001  5.574190921131703E-001  5.644305611511399E-001 
 5.715302236126332E-001  5.787191888343522E-001  5.859985801067410E-001  5.933695348494937E-001 
 6.008332047892864E-001  6.083907561397331E-001  6.160433697836062E-001  6.237922414573591E-001 
 6.316385819379537E-001  6.395836172320549E-001  6.476285887675927E-001  6.557747535877347E-001 
 6.640233845473102E-001  6.723757705116861E-001  6.808332165581635E-001  6.893970441798954E-001 
 6.980685914923683E-001  7.068492134424946E-001  7.157402820203160E-001  7.247431864733882E-001 
 7.338593335238494E-001  7.430901475882208E-001  7.524370709999829E-001  7.619015642349325E-001 
 7.714851061393946E-001  7.811891941612910E-001  7.910153445841155E-001  8.009650927638658E-001 
 8.110399933689353E-001  8.212416206230422E-001  8.315715685512022E-001  8.420314512287920E-001 
 8.526229030337644E-001  8.633475789020089E-001  8.742071545859513E-001  8.852033269163876E-001 
 8.963378140676129E-001  9.076123558259015E-001  9.190287138613380E-001  9.305886720030937E-001 
 9.422940365181489E-001  9.541466363935205E-001  9.661483236220567E-001  9.783009734918012E-001 
 9.906064848790226E-001  1.003066780544912E+000  1.015683807436016E+000  1.028459536988458E+000 
 1.041395965435970E+000  1.054495114121818E+000  1.067759029814636E+000  1.081189785028233E+000 
 1.094789478345441E+000  1.108560234746005E+000  1.122504205938631E+000  1.136623570697190E+000 
 1.150920535201146E+000  1.165397333380296E+000  1.180056227263804E+000  1.194899507333664E+000 
 1.209929492882590E+000  1.225148532376397E+000  1.240559003820974E+000  1.256163315133833E+000 
 1.271963904520366E+000  1.287963240854813E+000  1.304163824066022E+000  1.320568185528087E+000 
 1.337178888455854E+000  1.353998528305455E+000  1.371029733179836E+000  1.388275164239407E+000 
 1.405737516117860E+000  1.423419517343199E+000  1.441323930764093E+000  1.459453553981567E+000 
 1.477811219786130E+000  1.496399796600417E+000  1.515222188927370E+000  1.534281337804086E+000 
 1.553580221261356E+000  1.573121854788978E+000  1.592909291806956E+000  1.612945624142575E+000 
 1.633233982513529E+000  1.653777537017095E+000  1.674579497625453E+000  1.695643114687276E+000 
 1.716971679435579E+000  1.738568524502000E+000  1.760437024437522E+000  1.782580596239747E+000 
 1.805002699886826E+000  1.827706838878066E+000  1.850696560781378E+000  1.873975457787587E+000 
 1.897547167271705E+000  1.921415372361302E+000  1.945583802511977E+000  1.970056234090116E+000 
 1.994836490962945E+000  2.019928445096011E+000  2.045336017158202E+000  2.071063177134339E+000 
 2.097113944945514E+000  2.123492391077202E+000  2.150202637215271E+000  2.177248856890030E+000 
 2.204635276128321E+000  2.232366174113873E+000  2.260445883855918E+000  2.288878792866224E+000 
 2.317669343844680E+000  2.346822035373443E+000  2.376341422619879E+000  2.406232118048308E+000 
 2.436498792140695E+000  2.467146174126453E+000  2.498179052721363E+000  2.529602276875845E+000 
 2.561420756532608E+000  2.593639463393827E+000  2.626263431698006E+000  2.659297759006558E+000 
 2.692747607000342E+000  2.726618202286153E+000  2.760914837213419E+000  2.795642870701129E+000 
 2.830807729075162E+000  2.866414906916190E+000  2.902469967918185E+000  2.938978545757788E+000 
 2.975946344974570E+000  3.013379141862358E+000  3.051282785371836E+000  3.089663198024405E+000 
 3.128526376837634E+000  3.167878394262286E+000  3.207725399131135E+000  3.248073617619772E+000 
 3.288929354219412E+000  3.330298992722029E+000  3.372188997217810E+000  3.414605913105172E+000 
 3.457556368113533E+000  3.501047073338858E+000  3.545084824292329E+000  3.589676501962131E+000 
 3.634829073888613E+000  3.680549595253015E+000  3.726845209979803E+000  3.773723151852977E+000 
 3.821190745646334E+000  3.869255408267963E+000  3.917924649919204E+000  3.967206075268066E+000 
 4.017107384637534E+000  4.067636375208726E+000  4.118800942239207E+000  4.170609080296687E+000 
 4.223068884508125E+000  4.276188551824669E+000  4.329976382302415E+000  4.384440780399294E+000 
 4.439590256288333E+000  4.495433427187325E+000  4.551979018705346E+000  4.609235866206120E+000 
 4.667212916188545E+000  4.725919227684650E+000  4.785363973675031E+000  4.845556442522196E+000 
 4.906506039421875E+000  4.968222287872569E+000  5.030714831163680E+000  5.093993433882219E+000 
 5.158067983438612E+000  5.222948491611598E+000  5.288645096112560E+000  5.355168062169631E+000 
 5.422527784131582E+000  5.490734787092020E+000  5.559799728533938E+000  5.629733399994931E+000 
 5.700546728753464E+000  5.772250779536207E+000  5.844856756246989E+000  5.918376003717396E+000 
 5.992820009479405E+000  6.068200405560392E+000  6.144528970300587E+000  6.221817630193533E+000 
 6.300078461749593E+000  6.379323693382900E+000  6.459565707322144E+000  6.540817041545234E+000 
 6.623090391738462E+000  6.706398613280193E+000  6.790754723249511E+000  6.876171902460245E+000 
 6.962663497520410E+000  7.050243022917708E+000  7.138924163131182E+000  7.228720774769387E+000 
 7.319646888735607E+000  7.411716712420119E+000  7.504944631920201E+000  7.599345214287960E+000 
 7.694933209806427E+000  7.791723554294404E+000  7.889731371440111E+000  7.988971975164387E+000 
 8.089460872013486E+000  8.191213763581960E+000  8.294246548966163E+000  8.398575327248402E+000 
 8.504216400012556E+000  8.611186273891192E+000  8.719501663144701E+000  8.829179492273058E+000 
 8.940236898660171E+000  9.052691235251753E+000  9.166560073266703E+000  9.281861204942595E+000 
 9.398612646315870E+000  9.516832640036741E+000  9.636539658219764E+000  9.757752405330091E+000 
 9.880489821106037E+000  1.000477108351856E+001  1.013061561176773E+001  1.025804306931714E+001 
 1.038707336696630E+001  1.051772666596169E+001  1.065002338114714E+001  1.078398418415351E+001 
 1.091963000662885E+001  1.105698204350890E+001  1.119606175632883E+001  1.133689087657677E+001 
 1.147949140908925E+001  1.162388563548960E+001  1.177009611766949E+001  1.191814570131420E+001 
 1.206805751947241E+001  1.221985499617067E+001  1.237356185007358E+001  1.252920209818978E+001 
 1.268680005962467E+001  1.284638035938039E+001  1.300796793220340E+001  1.317158802648074E+001 
 1.333726620818504E+001  1.350502836486923E+001  1.367490070971165E+001  1.384690978561173E+001 
 1.402108246933757E+001  1.419744597572539E+001  1.437602786193181E+001  1.455685603173995E+001 
 1.473995873991917E+001  1.492536459664018E+001  1.511310257194534E+001  1.530320200027518E+001 
 1.549569258505219E+001  1.569060440332183E+001  1.588796791045227E+001  1.608781394489306E+001 
 1.629017373299363E+001  1.649507889388262E+001  1.670256144440825E+001  1.691265380414120E+001 
 1.712538880044013E+001  1.734079967358098E+001  1.755892008195098E+001  1.777978410730767E+001 
 1.800342626010436E+001  1.822988148488249E+001  1.845918516573158E+001  1.869137313181835E+001 
 1.892648166298483E+001  1.916454749541737E+001  1.940560782738669E+001  1.964970032506001E+001 
 1.989686312838679E+001  2.014713485705783E+001  2.040055461653994E+001  2.065716200418617E+001 
 2.091699711542284E+001  2.118010055001481E+001  2.144651341840891E+001  2.171627734815792E+001 
 2.198943449042472E+001  2.226602752656847E+001  2.254609967481387E+001  2.282969469700381E+001 
 2.311685690543753E+001  2.340763116979438E+001  2.370206292414467E+001  2.400019817404911E+001 
 2.430208350374699E+001  2.460776608343531E+001  2.491729367663909E+001  2.523071464767444E+001 
 2.554807796920581E+001  2.586943322989779E+001  2.619483064216372E+001  2.652432105001133E+001 
 2.685795593698710E+001  2.719578743422102E+001  2.753786832857174E+001  2.788425207087503E+001 
 2.823499278429540E+001  2.859014527278280E+001  2.894976502963623E+001  2.931390824617424E+001 
 2.968263182051532E+001  3.005599336646820E+001  3.043405122253392E+001  3.081686446102178E+001 
 3.120449289727902E+001  3.159699709903749E+001  3.199443839587734E+001  3.239687888880967E+001 
 3.280438145998040E+001  3.321700978249523E+001  3.363482833036909E+001  3.405790238860023E+001 
 3.448629806337087E+001  3.492008229237689E+001  3.535932285528649E+001  3.580408838433134E+001 
 3.625444837503027E+001  3.671047319704800E+001  3.717223410519087E+001  3.763980325054010E+001 
 3.811325369172600E+001  3.859265940634332E+001  3.907809530251019E+001  3.956963723057315E+001 
 4.006736199495837E+001  4.057134736617298E+001  4.108167209295667E+001  4.159841591458613E+001 
 4.212165957333495E+001  4.265148482708921E+001  4.318797446212282E+001  4.373121230603284E+001 
 4.428128324083743E+001  4.483827321623946E+001  4.540226926305562E+001  4.597335950681577E+001 
 4.655163318153246E+001  4.713718064364372E+001  4.773009338613197E+001  4.833046405281935E+001 
 4.893838645284408E+001  4.955395557531806E+001  5.017726760416892E+001  5.080841993316945E+001 
 5.144751118115499E+001  5.209464120743336E+001  5.274991112738785E+001  5.341342332827643E+001 
 5.408528148523060E+001  5.476559057745411E+001  5.545445690462680E+001  5.615198810351391E+001 
 5.685829316478419E+001  5.757348245004067E+001  5.829766770906404E+001  5.903096209727446E+001 
 5.977348019341211E+001  6.052533801743997E+001  6.128665304867292E+001  6.205754424413328E+001 
 6.283813205713884E+001  6.362853845612361E+001  6.442888694369530E+001  6.523930257593366E+001 
 6.605991198192979E+001  6.689084338357301E+001  6.773222661558552E+001  6.858419314580888E+001 
 6.944687609574702E+001  7.032041026136577E+001  7.120493213415583E+001  7.210057992245954E+001 
 7.300749357306577E+001  7.392581479307785E+001  7.485568707205444E+001  7.579725570443111E+001 
 7.675066781222245E+001  7.771607236800976E+001  7.869362021821929E+001  7.968346410669119E+001 
 8.068575869854702E+001  8.170066060435610E+001  8.272832840460576E+001  8.376892267448086E+001 
 8.482260600895292E+001  8.588954304818678E+001  8.696990050326573E+001  8.806384718223978E+001 
 8.917155401650351E+001  9.029319408750311E+001  9.142894265378179E+001  9.257897717836391E+001 
 9.374347735648340E+001  9.492262514366259E+001  9.611660478414187E+001  9.732560283966944E+001 
 9.854980821865135E+001  9.978941220566841E+001  1.010446084913659E+002
    </PP_R>
    <PP_RAB type="real" size="1059" columns="4">
 2.279704913886291E-006  2.308380071672556E-006  2.337415918541456E-006  2.366816991403135E-006 
 2.396587884235050E-006  2.426733248799772E-006  2.457257795371847E-006  2.488166293473778E-006 
 2.519463572621276E-006  2.551154523077886E-006  2.583244096619093E-006  2.615737307306046E-006 
 2.648639232269026E-006  2.681955012500742E-006  2.715689853659645E-006  2.749849026883296E-006 
 2.784437869612008E-006  2.819461786422831E-006  2.854926249874019E-006  2.890836801360144E-006 
 2.927199051977937E-006  2.964018683403032E-006  3.001301448777752E-006  3.039053173610037E-006 
 3.077279756683703E-006  3.115987170980124E-006  3.155181464611536E-006  3.194868761766061E-006 
 3.235055263664620E-006  3.275747249529900E-006  3.316951077567479E-006  3.358673185959317E-006 
 3.400920093869735E-006  3.443698402464042E-006  3.487014795939997E-006  3.530876042572204E-006 
 3.575288995769686E-006  3.620260595146739E-006  3.665797867607258E-006  3.711907928442717E-006 
 3.758597982443931E-006  3.805875325026829E-006  3.853747343372376E-006  3.902221517580831E-006 
 3.951305421840543E-006  4.001006725611411E-006  4.051333194823266E-006  4.102292693089316E-006 
 4.153893182934835E-006  4.206142727041353E-006  4.259049489506436E-006  4.312621737119357E-006 
 4.366867840652800E-006  4.421796276170802E-006  4.477415626353175E-006  4.533734581836539E-006 
 4.590761942572268E-006  4.648506619201502E-006  4.706977634447443E-006  4.766184124525192E-006 