<UPF version="2.0.1">
  <PP_INFO>
    Generated using "atomic" code by A. Dal Corso  v.5.1.2
    Author: ADC
    Generation date: 30Jul2016
    Pseudopotential type: USPP
    Element: Ba
    Functional: PBE

    Suggested minimum cutoff for wavefunctions:  37. Ry
    Suggested minimum cutoff for charge density: 176. Ry
    The Pseudo was generated with a Scalar-Relativistic Calculation
    Local Potential by smoothing AE potential with Bessel fncs, cutoff radius:   2.0000
    Pseudopotential contains additional information for GIPAW reconstruction.

    Valence configuration: 
    nl pn  l   occ       Rcut    Rcut US       E pseu
    5S  1  0  2.00      1.400      1.900    -2.474976
    6S  2  0  2.00      1.400      1.900    -0.237377
    5P  2  1  6.00      1.600      2.100    -1.377063
    Generation configuration:
    5S  1  0  2.00      1.400      1.900    -2.475005
    6S  2  0  2.00      1.400      1.900    -0.237383
    6S  2  0  0.00      1.400      1.900     6.000000
    5P  2  1  6.00      1.600      2.100    -1.377084
    6P  3  1  0.00      1.600      2.100     6.000000
    5D  3  2  0.00      1.500      2.100     0.300000
    5D  3  2  0.00      1.500      2.100     4.050000

    Pseudization used: troullier-martins
<PP_INPUTFILE>
 &input
   title='Ba',
   zed=56.,
   rel=1,
   config='[Xe] 6s2 6p0 5d-1',
   iswitch=3,
   dft='PBE'
 /
 &inputp
   lpaw=.false.,
   pseudotype=3,
   file_pseudopw='Ba.pbe-spn-rrkjus_psl.1.0.0.UPF',
   author='ADC',
   lloc=-1,
   rcloc=2.0,
   which_augfun='PSQ',
   rmatch_augfun_nc=.true.,
   nlcc=.true.,
   new_core_ps=.true.,
   rcore=1.6,
   tm=.true.
 /
7
5S  1  0  2.00  0.00  1.40  1.90  0.0
6S  2  0  2.00  0.00  1.40  1.90  0.0
6S  2  0  0.00  6.00  1.40  1.90  0.0
5P  2  1  6.00  0.00  1.60  2.10  0.0
6P  3  1  0.00  6.00  1.60  2.10  0.0
5D  3  2  0.00  0.30  1.50  2.10  0.0
5D  3  2  0.00  4.05  1.50  2.10  0.0
</PP_INPUTFILE>
  </PP_INFO>
  <!--                               -->
  <!-- END OF HUMAN READABLE SECTION -->
  <!--                               -->
  <PP_HEADER generated='Generated using "atomic" code by A. Dal Corso  v.5.1.2'
             author="ADC"
             date="30Jul2016"
             comment=""
             element="Ba"
             pseudo_type="USPP"
             relativistic="scalar"
             is_ultrasoft="T"
             is_paw="F"
             is_coulomb="F"
             has_so="F"
             has_wfc="F"
             has_gipaw="T"
             paw_as_gipaw="F"
             core_correction="T"
             functional="PBE"
             z_valence="1.000000000000000E+001"
             total_psenergy="-6.260534529164069E+001"
             wfc_cutoff="3.740960857775504E+001"
             rho_cutoff="1.757802187619954E+002"
             l_max="2"
             l_max_rho="4"
             l_local="-1"
             mesh_size="1251"
             number_of_wfc="3"
             number_of_proj="7"/>
  <PP_MESH dx="1.250000000000000E-002" mesh="1251" xmin="-7.000000000000000E+000" rmax="1.000000000000000E+002"
zmesh="5.600000000000000E+001">
    <PP_R type="real" size="1251" columns="4">
 1.628360652775922E-005  1.648842908337540E-005  1.669582798958182E-005  1.690583565287953E-005 
 1.711848488739321E-005  1.733380891999837E-005  1.755184139551319E-005  1.777261638195556E-005 
 1.799616837586626E-005  1.822253230769919E-005  1.845174354727923E-005  1.868383790932890E-005 
 1.891885165906447E-005  1.915682151786244E-005  1.939778466899746E-005  1.964177876345211E-005 
 1.988884192580006E-005  2.013901276016308E-005  2.039233035624299E-005  2.064883429542960E-005 
 2.090856465698526E-005  2.117156202430737E-005  2.143786749126966E-005  2.170752266864312E-005 
 2.198056969059787E-005  2.225705122128660E-005  2.253701046151097E-005  2.282049115547187E-005 
 2.310753759760443E-005  2.339819463949929E-005  2.369250769691056E-005  2.399052275685226E-005 
 2.429228638478382E-005  2.459784573188602E-005  2.490724854242855E-005  2.522054316123003E-005 
 2.553777854121204E-005  2.585900425104814E-005  2.618427048290898E-005  2.651362806030512E-005 
 2.684712844602808E-005  2.718482375019163E-005  2.752676673837411E-005  2.787301083986308E-005 
 2.822361015600387E-005  2.857861946865293E-005  2.893809424873762E-005  2.930209066492368E-005 
 2.967066559239168E-005  3.004387662172395E-005  3.042178206790311E-005  3.080444097942397E-005 
 3.119191314751999E-005  3.158425911550573E-005  3.198154018823696E-005  3.238381844168955E-005 
 3.279115673265906E-005  3.320361870858216E-005  3.362126881748174E-005  3.404417231803708E-005 
 3.447239528978052E-005  3.490600464342262E-005  3.534506813130708E-005  3.578965435799713E-005 
 3.623983279099525E-005  3.669567377159748E-005  3.715724852588445E-005  3.762462917585061E-005 
 3.809788875067336E-005  3.857710119812419E-005  3.906234139612295E-005  3.955368516443780E-005 
 4.005120927653220E-005  4.055499147156084E-005  4.106511046651671E-005  4.158164596853061E-005 
 4.210467868732559E-005  4.263429034782810E-005  4.317056370293756E-005  4.371358254645684E-005 
 4.426343172618497E-005  4.482019715717497E-005  4.538396583515818E-005  4.595482585013750E-005 
 4.653286640015176E-005  4.711817780521289E-005  4.771085152141876E-005  4.831098015524334E-005 
 4.891865747800658E-005  4.953397844052658E-005  5.015703918795558E-005  5.078793707480299E-005 
 5.142677068014719E-005  5.207363982303871E-005  5.272864557809726E-005  5.339189029130465E-005 
 5.406347759599670E-005  5.474351242905612E-005  5.543210104730908E-005  5.612935104412822E-005 
 5.683537136624405E-005  5.755027233076832E-005  5.827416564243122E-005  5.900716441103539E-005 
 5.974938316912985E-005  6.050093788990556E-005  6.126194600531669E-005  6.203252642442952E-005 
 6.281279955200229E-005  6.360288730729874E-005  6.440291314313805E-005  6.521300206518471E-005 
 6.603328065148093E-005  6.686387707222465E-005  6.770492110979656E-005  6.855654417903864E-005 
 6.941887934778804E-005  7.029206135766935E-005  7.117622664514804E-005  7.207151336284925E-005 
 7.297806140114405E-005  7.389601241000779E-005  7.482550982115321E-005  7.576669887044179E-005 
 7.671972662057749E-005  7.768474198408516E-005  7.866189574657867E-005  7.965134059032146E-005 
 8.065323111808332E-005  8.166772387729773E-005  8.269497738452225E-005  8.373515215020733E-005 
 8.478841070377638E-005  8.585491761902117E-005  8.693483953981720E-005  8.802834520616163E-005 
 8.913560548053959E-005  9.025679337462168E-005  9.139208407629735E-005  9.254165497704865E-005 
 9.370568569966758E-005  9.488435812632278E-005  9.607785642697893E-005  9.728636708817366E-005 
 9.851007894215663E-005  9.974918319639464E-005  1.010038734634484E-004  1.022743457912247E-004 
 1.035607986936097E-004  1.048634331814866E-004  1.061824527941445E-004  1.075180636310814E-004 
 1.088704743842078E-004  1.102398963704554E-004  1.116265435647957E-004  1.130306326336741E-004 
 1.144523829688640E-004  1.158920167217480E-004  1.173497588380288E-004  1.188258370928781E-004 
 1.203204821265262E-004  1.218339274803005E-004  1.233664096331166E-004  1.249181680384288E-004 
 1.264894451616451E-004  1.280804865180125E-004  1.296915407109802E-004  1.313228594710435E-004 
 1.329746976950775E-004  1.346473134861657E-004  1.363409681939279E-004  1.380559264553584E-004 
 1.397924562361745E-004  1.415508288726874E-004  1.433313191141993E-004  1.451342051659323E-004 
 1.469597687325005E-004  1.488082950619252E-004  1.506800729902059E-004  1.525753949864526E-004 
 1.544945571985827E-004  1.564378594995969E-004  1.584056055344332E-004  1.603981027674128E-004 
 1.624156625302826E-004  1.644586000708597E-004  1.665272346022915E-004  1.686218893529323E-004 
 1.707428916168483E-004  1.728905728049588E-004  1.750652684968184E-004  1.772673184930538E-004 
 1.794970668684569E-004  1.817548620257476E-004  1.840410567500134E-004  1.863560082638304E-004 
 1.887000782830831E-004  1.910736330734809E-004  1.934770435077884E-004  1.959106851237766E-004 
 1.983749381828983E-004  2.008701877297083E-004  2.033968236520246E-004  2.059552407418504E-004 
 2.085458387570617E-004  2.111690224838682E-004  2.138252018000647E-004  2.165147917390732E-004 
 2.192382125547935E-004  2.219958897872695E-004  2.247882543291785E-004  2.276157424931619E-004 
 2.304787960799977E-004  2.333778624476336E-004  2.363133945810882E-004  2.392858511632291E-004 
 2.422956966464452E-004  2.453434013252168E-004  2.484294414096003E-004  2.515542990996381E-004 
 2.547184626607010E-004  2.579224264997836E-004  2.611666912427540E-004  2.644517638125786E-004 
 2.677781575085307E-004  2.711463920863919E-004  2.745569938396685E-004  2.780104956818230E-004 
 2.815074372295444E-004  2.850483648870647E-004  2.886338319315335E-004  2.922643985994719E-004 
 2.959406321743081E-004  2.996631070750171E-004  3.034324049458765E-004  3.072491147473461E-004 
 3.111138328480985E-004  3.150271631181993E-004  3.189897170234649E-004  3.230021137210056E-004 
 3.270649801559675E-004  3.311789511594980E-004  3.353446695479359E-004  3.395627862232546E-004 
 3.438339602747666E-004  3.481588590821070E-004  3.525381584195139E-004  3.569725425614184E-004 
 3.614627043893641E-004  3.660093455002725E-004  3.706131763160668E-004  3.752749161946791E-004 
 3.799952935424496E-004  3.847750459279423E-004  3.896149201971924E-004  3.945156725904008E-004 
 3.994780688601000E-004  4.045028843908030E-004  4.095909043201595E-004  4.147429236616352E-004 
 4.199597474287341E-004  4.252421907607836E-004  4.305910790503013E-004  4.360072480719649E-004 
 4.414915441132036E-004  4.470448241064312E-004  4.526679557629454E-004  4.583618177085077E-004 
 4.641272996206312E-004  4.699653023675949E-004  4.758767381492051E-004  4.818625306393301E-004 
 4.879236151302245E-004  4.940609386786711E-004  5.002754602539611E-004  5.065681508877339E-004 
 5.129399938257041E-004  5.193919846812942E-004  5.259251315912016E-004  5.325404553729234E-004 
 5.392389896842590E-004  5.460217811848232E-004  5.528898896995873E-004  5.598443883844802E-004 
 5.668863638940705E-004  5.740169165513584E-004  5.812371605197042E-004  5.885482239769172E-004 
 5.959512492915371E-004  6.034473932013314E-004  6.110378269940363E-004  6.187237366903754E-004 
 6.265063232293756E-004  6.343868026560172E-004  6.423664063112441E-004  6.504463810243613E-004 
 6.586279893078574E-004  6.669125095546718E-004  6.753012362379479E-004  6.837954801132975E-004 
 6.923965684236073E-004  7.011058451064253E-004  7.099246710039521E-004  7.188544240756759E-004 
 7.278964996136826E-004  7.370523104606705E-004  7.463232872307128E-004  7.557108785327914E-004 
 7.652165511971462E-004  7.748417905044710E-004  7.845881004179897E-004  7.944570038184558E-004 
 8.044500427421040E-004  8.145687786215966E-004  8.248147925300021E-004  8.351896854278389E-004 
 8.456950784132309E-004  8.563326129752049E-004  8.671039512501781E-004  8.780107762816711E-004 
 8.890547922832847E-004  9.002377249049889E-004  9.115613215027574E-004  9.230273514115966E-004 
 9.346376062220068E-004  9.463939000599250E-004  9.582980698701809E-004  9.703519757035267E-004 
 9.825575010072726E-004  9.949165529195786E-004  1.007431062567453E-003  1.020102985368487E-003 
 1.032934301336401E-003  1.045927015390421E-003  1.059083157668549E-003  1.072404783844785E-003 
 1.085893975450321E-003  1.099552840198790E-003  1.113383512315597E-003  1.127388152871400E-003 
 1.141568950119778E-003  1.155928119839153E-003  1.170467905679007E-003  1.185190579510458E-003 
 1.200098441781246E-003  1.215193821875182E-003  1.230479078476118E-003  1.245956599936494E-003 
 1.261628804650529E-003  1.277498141432093E-003  1.293567089897347E-003  1.309838160852181E-003 
 1.326313896684534E-003  1.342996871761650E-003  1.359889692832327E-003  1.376994999434227E-003 
 1.394315464306307E-003  1.411853793806441E-003  1.429612728334296E-003  1.447595042759522E-003 
 1.465803546855336E-003  1.484241085737546E-003  1.502910540309114E-003  1.521814827710301E-003 
 1.540956901774473E-003  1.560339753489650E-003  1.579966411465845E-003  1.599839942408298E-003 
 1.619963451596653E-003  1.640340083370159E-003  1.660973021618991E-003  1.681865490281727E-003 
 1.703020753849101E-003  1.724442117874087E-003  1.746132929488394E-003  1.768096577925470E-003 
 1.790336495050067E-003  1.812856155894484E-003  1.835659079201543E-003  1.858748827974404E-003 
 1.882129010033292E-003  1.905803278579218E-003  1.929775332764809E-003  1.954048918272303E-003 
 1.978627827898821E-003  2.003515902148995E-003  2.028717029835067E-003  2.054235148684508E-003 
 2.080074245955304E-003  2.106238359058975E-003  2.132731576191422E-003  2.159558036971727E-003 
 2.186721933088963E-003  2.214227508957166E-003  2.242079062378523E-003  2.270280945214921E-003 
 2.298837564067933E-003  2.327753380967352E-003  2.357032914068398E-003  2.386680738357687E-003 
 2.416701486368084E-003  2.447099848902544E-003  2.477880575767059E-003  2.509048476512825E-003 
 2.540608421187744E-003  2.572565341097380E-003  2.604924229575489E-003  2.637690142764230E-003 
 2.670868200404199E-003  2.704463586634405E-003  2.738481550802294E-003  2.772927408283982E-003 
 2.807806541314780E-003  2.843124399830185E-003  2.878886502317444E-003  2.915098436677829E-003 
 2.951765861099760E-003  2.988894504942903E-003  3.026490169633396E-003  3.064558729570337E-003 
 3.103106133043663E-003  3.142138403163598E-003  3.181661638801759E-003  3.221682015544122E-003 
 3.262205786655978E-003  3.303239284059005E-003  3.344788919320662E-003  3.386861184655988E-003 
 3.429462653942040E-003  3.472599983745065E-003  3.516279914360608E-003  3.560509270866700E-003 
 3.605294964190276E-003  3.650643992187037E-003  3.696563440734871E-003  3.743060484841032E-003 
 3.790142389763270E-003  3.837816512145012E-003  3.886090301164875E-003  3.934971299700607E-003 
 3.984467145507676E-003  4.034585572412695E-003  4.085334411521831E-003  4.136721592444445E-003 
 4.188755144532104E-003  4.241443198133181E-003  4.294793985863253E-003  4.348815843891443E-003 
 4.403517213242975E-003  4.458906641118103E-003  4.514992782227616E-003  4.571784400145181E-003 
 4.629290368676636E-003  4.687519673246561E-003  4.746481412302264E-003  4.806184798735426E-003 
 4.866639161321655E-003  4.927853946178093E-003  4.989838718239418E-003  5.052603162752376E-003 
 5.116157086789109E-003  5.180510420779561E-003  5.245673220063088E-003  5.311655666459656E-003 
 5.378468069860755E-003  5.446120869840344E-003  5.514624637286069E-003  5.583990076050962E-003 
 5.654228024625953E-003  5.725349457833409E-003  5.797365488541960E-003  5.870287369402932E-003 
 5.944126494608565E-003  6.018894401672401E-003  6.094602773232034E-003  6.171263438874545E-003 
 6.248888376984918E-003  6.327489716617658E-003  6.407079739391996E-003  6.487670881410919E-003 
 6.569275735204327E-003  6.651907051696661E-003  6.735577742199233E-003  6.820300880427663E-003 
 6.906089704544670E-003  6.992957619228553E-003  7.080918197767731E-003  7.169985184181550E-003 
 7.260172495367845E-003  7.351494223277478E-003  7.443964637116221E-003  7.537598185574384E-003 
 7.632409499084407E-003  7.728413392106920E-003  7.825624865445528E-003  7.924059108590712E-003 
 8.023731502093245E-003  8.124657619967387E-003  8.226853232124394E-003  8.330334306836584E-003 
 8.435117013232405E-003  8.541217723822931E-003  8.648653017060047E-003  8.757439679926900E-003 
 8.867594710560891E-003  8.979135320909659E-003  9.092078939420522E-003  9.206443213763649E-003 
 9.322246013589578E-003  9.439505433321388E-003  9.558239794981969E-003  9.678467651056915E-003 
 9.800207787393333E-003  9.923479226135208E-003  1.004830122869564E-002  1.017469329876648E-002 
 1.030267518536583E-002  1.043226688592386E-002  1.056348864940742E-002  1.069636097948403E-002 
 1.083090463772560E-002  1.096714064685246E-002  1.110509029401822E-002  1.124477513413590E-002 
 1.138621699324596E-002  1.152943797192664E-002  1.167446044874727E-002  1.182130708376490E-002 
 1.197000082206499E-002  1.212056489734669E-002  1.227302283555308E-002  1.242739845854718E-002 
 1.258371588783417E-002  1.274199954833041E-002  1.290227417217987E-002  1.306456480261860E-002 
 1.322889679788782E-002  1.339529583519611E-002  1.356378791473159E-002  1.373439936372448E-002 
 1.390715684056080E-002  1.408208733894780E-002  1.425921819213174E-002  1.443857707716880E-002 
 1.462019201924969E-002  1.480409139607858E-002  1.499030394230728E-002  1.517885875402497E-002 
 1.536978529330461E-002  1.556311339280640E-002  1.575887326043920E-002  1.595709548408064E-002 
 1.615781103635643E-002  1.636105127947996E-002  1.656684797015274E-002  1.677523326452635E-002 
 1.698623972322704E-002  1.719990031644325E-002  1.741624842907738E-002  1.763531786596218E-002 
 1.785714285714286E-002  1.808175806322562E-002  1.830919858079338E-002  1.853949994788974E-002 
 1.877269814957187E-002  1.900882962353320E-002  1.924793126579699E-002  1.949004043648129E-002 
 1.973519496563658E-002  1.998343315915681E-002  2.023479380476476E-002  2.048931617807272E-002 
 2.074704004871935E-002  2.100800568658377E-002  2.127225386807784E-002  2.153982588251751E-002 
 2.181076353857447E-002  2.208510917080866E-002  2.236290564628330E-002  2.264419637126286E-002 
 2.292902529799538E-002  2.321743693158020E-002  2.350947633692182E-002  2.380518914577149E-002 
 2.410462156385721E-002  2.440782037810351E-002  2.471483296394199E-002  2.502570729271382E-002 
 2.534049193916532E-002  2.565923608903795E-002  2.598198954675359E-002  2.630880274319671E-002 
 2.663972674359412E-002  2.697481325549417E-002  2.731411463684607E-002  2.765768390418095E-002 
 2.800557474089588E-002  2.835784150564186E-002  2.871453924081757E-002  2.907572368116984E-002 
 2.944145126250229E-002  2.981177913049363E-002  3.018676514962664E-002  3.056646791222974E-002 
 3.095094674763208E-002  3.134026173143390E-002  3.173447369489355E-002  3.213364423443231E-002 
 3.253783572125911E-002  3.294711131111609E-002  3.336153495414683E-002  3.378117140488875E-002 
 3.420608623239101E-002  3.463634583045992E-002  3.507201742803301E-002  3.551316909968379E-002 
 3.595986977625852E-002  3.641218925564671E-002  3.687019821368728E-002  3.733396821521173E-002 
 3.780357172522634E-002  3.827908212023499E-002  3.876057369970434E-002  3.924812169767327E-002 
 3.974180229450838E-002  4.024169262880729E-002  4.074787080945186E-002  4.126041592781259E-002 
 4.177940807010700E-002  4.230492832991324E-002  4.283705882084104E-002  4.337588268936230E-002 
 4.392148412780269E-002  4.447394838749701E-002  4.503336179210982E-002  4.559981175112370E-002 
 4.617338677349726E-002  4.675417648149467E-002  4.734227162468942E-002  4.793776409414414E-002 
 4.854074693676867E-002  4.915131436985905E-002  4.976956179581878E-002  5.039558581706606E-002 
 5.102948425112796E-002  5.167135614592431E-002  5.232130179524473E-002  5.297942275441908E-002 
 5.364582185618628E-002  5.432060322676189E-002  5.500387230210770E-002  5.569573584440706E-002 
 5.639630195874588E-002  5.710568011000490E-002  5.782398113996363E-002  5.855131728461917E-002 
 5.928780219172413E-002  6.003355093854340E-002  6.078868004983603E-002  6.155330751606209E-002 
 6.232755281181860E-002  6.311153691450845E-002  6.390538232324251E-002  6.470921307798108E-002 
 6.552315477891511E-002  6.634733460609114E-002  6.718188133928418E-002  6.802692537811897E-002 
 6.888259876244594E-002  6.974903519297240E-002  7.062637005215316E-002  7.151474042534516E-002 
 7.241428512222636E-002  7.332514469848592E-002  7.424746147778591E-002  7.518137957399929E-002 
 7.612704491372897E-002  7.708460525910794E-002  7.805421023088852E-002  7.903601133182032E-002 
 8.003016197032257E-002  8.103681748445549E-002  8.205613516619090E-002  8.308827428599051E-002 
 8.413339611769187E-002  8.519166396370718E-002  8.626324318054078E-002  8.734830120462511E-002 
 8.844700757848416E-002  8.955953397722434E-002  9.068605423535860E-002  9.182674437396950E-002 
 9.298178262821162E-002  9.415134947516232E-002  9.533562766202107E-002  9.653480223466369E-002 
 9.774906056655723E-002  9.897859238803615E-002  1.002235898159492E-001  1.014842473836776E-001 
 1.027607620715309E-001  1.040533333375264E-001  1.053621631485539E-001  1.066874560119343E-001 
 1.080294190073741E-001  1.093882618193212E-001  1.107641967697298E-001  1.121574388512351E-001 
 1.135682057607470E-001  1.149967179334654E-001  1.164431985773234E-001  1.179078737078649E-001 
 1.193909721835584E-001  1.208927257415584E-001  1.224133690339140E-001  1.239531396642328E-001 
 1.255122782248090E-001  1.270910283342142E-001  1.286896366753655E-001  1.303083530340685E-001 
 1.319474303380473E-001  1.336071246964658E-001  1.352876954399437E-001  1.369894051610791E-001 
 1.387125197554782E-001  1.404573084633016E-001  1.422240439113354E-001  1.440130021555870E-001 
 1.458244627244223E-001  1.476587086622406E-001  1.495160265737012E-001  1.513967066685068E-001 
 1.533010428067481E-001  1.552293325448215E-001  1.571818771819216E-001  1.591589818071203E-001 
 1.611609553470381E-001  1.631881106141130E-001  1.652407643554802E-001  1.673192373024631E-001 
 1.694238542206880E-001  1.715549439608306E-001  1.737128395099980E-001  1.758978780437604E-001 
 1.781104009788344E-001  1.803507540264295E-001  1.826192872462680E-001  1.849163551012803E-001 
 1.872423165129923E-001  1.895975349176073E-001  1.919823783227921E-001  1.943972193651812E-001 
 1.968424353686001E-001  1.993184084030244E-001  2.018255253442784E-001  2.043641779344843E-001 
 2.069347628432750E-001  2.095376817297717E-001  2.121733413053463E-001  2.148421533971703E-001 
 2.175445350125620E-001  2.202809084041476E-001  2.230517011358359E-001  2.258573461496290E-001 
 2.286982818332686E-001  2.315749520887345E-001  2.344878064016077E-001  2.374372999112998E-001 
 2.404238934821734E-001  2.434480537755494E-001  2.465102533226267E-001  2.496109705983151E-001 
 2.527506900959965E-001  2.559299024032312E-001  2.591491042784094E-001  2.624087987283740E-001 
 2.657094950870152E-001  2.690517090948534E-001  2.724359629796282E-001  2.758627855378933E-001 
 2.793327122176459E-001  2.828462852019898E-001  2.864040534938513E-001  2.900065730017653E-001 
 2.936544066267333E-001  2.973481243501812E-001  3.010883033230187E-001  3.048755279558190E-001 
 3.087103900101368E-001  3.125934886909695E-001  3.165254307403865E-001  3.205068305323331E-001 
 3.245383101686262E-001  3.286204995761620E-001  3.327540366053396E-001  3.369395671297301E-001 
 3.411777451469941E-001  3.454692328810682E-001  3.498147008856432E-001  3.542148281489345E-001 
 3.586703021997798E-001  3.631818192150648E-001  3.677500841285006E-001  3.723758107407756E-001 
 3.770597218310826E-001  3.818025492700597E-001  3.866050341341442E-001  3.914679268213656E-001 
 3.963919871686011E-001  4.013779845702969E-001  4.064266980986916E-001  4.115389166255464E-001 
 4.167154389454057E-001  4.219570739004151E-001  4.272646405066992E-001  4.326389680823389E-001 
 4.380808963769531E-001  4.435912757029080E-001  4.491709670681857E-001  4.548208423109124E-001 
 4.605417842355904E-001  4.663346867510356E-001  4.722004550100500E-001  4.781400055508599E-001 
 4.841542664403198E-001  4.902441774189303E-001  4.964106900476731E-001  5.026547678566903E-001 
 5.089773864958450E-001  5.153795338871613E-001  5.218622103791953E-001  5.284264289033389E-001 
 5.350732151320897E-001  5.418036076393207E-001  5.486186580625524E-001  5.555194312672797E-001 
 5.625070055133565E-001  5.695824726234732E-001  5.767469381537629E-001  5.840015215665388E-001 
 5.913473564052198E-001  5.987855904714458E-001  6.063173860044205E-001  6.139439198625219E-001 
 6.216663837071794E-001  6.294859841890811E-001  6.374039431367127E-001  6.454214977472666E-001 
 6.535399007799649E-001  6.617604207517963E-001  6.700843421357322E-001  6.785129655614250E-001 
 6.870476080184310E-001  6.956896030620003E-001  7.044403010214385E-001  7.133010692111059E-001 
 7.222732921440613E-001  7.313583717483894E-001  7.405577275862646E-001  7.498727970757502E-001 
 7.593050357154069E-001  7.688559173117137E-001  7.785269342093484E-001  7.883195975243801E-001 
 7.982354373803725E-001  8.082760031474779E-001  8.184428636845270E-001  8.287376075841603E-001 
 8.391618434210598E-001  8.497172000032804E-001  8.604053266267646E-001  8.712278933330440E-001 
 8.821865911701819E-001  8.932831324570145E-001  9.045192510506904E-001  9.158967026176018E-001 
 9.274172649077052E-001  9.390827380322938E-001  9.508949447452802E-001  9.628557307279922E-001 
 9.749669648775756E-001  9.872305395990086E-001  9.996483711007885E-001  1.012222399694355E+000 
 1.024954590097254E+000  1.037846931740143E+000  1.050901439077633E+000  1.064120151903053E+000 
 1.077505135667180E+000  1.091058481800953E+000  1.104782308042284E+000  1.118678758766945E+000 
 1.132750005323631E+000  1.146998246373249E+000  1.161425708232447E+000  1.176034645221495E+000 
 1.190827340016522E+000  1.205806104006181E+000  1.220973277652825E+000  1.236331230858190E+000 
 1.251882363333712E+000  1.267629104975481E+000  1.283573916243912E+000  1.299719288548210E+000 
 1.316067744635640E+000  1.332621838985731E+000  1.349384158209405E+000  1.366357321453141E+000 
 1.383543980808232E+000  1.400946821725163E+000  1.418568563433238E+000  1.436411959365452E+000 
 1.454479797588717E+000  1.472774901239520E+000  1.491300128965023E+000  1.510058375369750E+000 
 1.529052571467869E+000  1.548285685141159E+000  1.567760721602766E+000  1.587480723866756E+000 
 1.607448773223604E+000  1.627667989721651E+000  1.648141532654605E+000  1.668872601055210E+000 
 1.689864434195074E+000  1.711120312090837E+000  1.732643556016669E+000  1.754437529023215E+000 
 1.776505636463106E+000  1.798851326523020E+000  1.821478090762495E+000  1.844389464659480E+000 
 1.867589028162754E+000  1.891080406251322E+000  1.914867269500796E+000  1.938953334656957E+000 
 1.963342365216493E+000  1.988038172015042E+000  2.013044613822667E+000  2.038365597946769E+000 
 2.064005080842637E+000  2.089967068731641E+000  2.116255618227203E+000  2.142874836968671E+000 
 2.169828884263124E+000  2.197121971735295E+000  2.224758363985633E+000  2.252742379256646E+000 
 2.281078390107661E+000  2.309770824098017E+000  2.338824164478904E+000  2.368242950893869E+000 
 2.398031780088135E+000  2.428195306626877E+000  2.458738243622477E+000  2.489665363470985E+000 
 2.520981498597803E+000  2.552691542212750E+000  2.584800449074663E+000  2.617313236265557E+000 
 2.650234983974582E+000  2.683570836291803E+000  2.717326002011958E+000  2.751505755448374E+000 
 2.786115437257056E+000  2.821160455271205E+000  2.856646285346191E+000  2.892578472215149E+000 
 2.928962630355393E+000  2.965804444865645E+000  3.003109672354383E+000  3.040884141839306E+000 
 3.079133755658113E+000  3.117864490390794E+000  3.157082397793437E+000  3.196793605743869E+000 
 3.237004319199131E+000  3.277720821165000E+000  3.318949473677756E+000  3.360696718798223E+000 
 3.402969079618393E+000  3.445773161280653E+000  3.489115652009839E+000  3.533003324158317E+000 
 3.577443035264140E+000  3.622441729122587E+000  3.668006436871131E+000  3.714144278088047E+000 
 3.760862461904906E+000  3.808168288132965E+000  3.856069148403823E+000  3.904572527324361E+000 
 3.953686003646200E+000  4.003417251449951E+000  4.053774041344252E+000  4.104764241679979E+000 
 4.156395819779684E+000  4.208676843182475E+000  4.261615480904640E+000  4.315220004716013E+000 
 4.369498790432507E+000  4.424460319224827E+000  4.480113178943653E+000  4.536466065461559E+000 
 4.593527784031695E+000  4.651307250663693E+000  4.709813493516772E+000  4.769055654310395E+000 
 4.829042989752732E+000  4.889784872986974E+000  4.951290795055963E+000  5.013570366385170E+000 
 5.076633318284302E+000  5.140489504467917E+000  5.205148902595004E+000  5.270621615828077E+000 
 5.336917874411796E+000  5.404048037271425E+000  5.472022593631510E+000  5.540852164654757E+000 
 5.610547505101683E+000  5.681119505011037E+000  5.752579191401367E+000  5.824937729994077E+000 
 5.898206426958017E+000  5.972396730676161E+000  6.047520233534421E+000  6.123588673732935E+000 
 6.200613937120269E+000  6.278608059050514E+000  6.357583226263912E+000  6.437551778791031E+000 
 6.518526211880873E+000  6.600519177953379E+000  6.683543488576289E+000  6.767612116467063E+000 
 6.852738197519861E+000  6.938935032858014E+000  7.026216090912436E+000  7.114595009525999E+000 
 7.204085598084555E+000  7.294701839674652E+000  7.386457893268371E+000  7.479368095935791E+000 
 7.573446965085082E+000  7.668709200730963E+000  7.765169687791583E+000  7.862843498414266E+000 
 7.961745894330670E+000  8.061892329241349E+000  8.163298451230517E+000  8.265980105211064E+000 
 8.369953335400304E+000  8.475234387827017E+000  8.581839712869810E+000  8.689785967827628E+000 
 8.799090019522442E+000  8.909768946934680E+000  9.021840043871956E+000  9.135320821671147E+000 
 9.250229011934678E+000  9.366582569301078E+000  9.484399674250378E+000  9.603698735944954E+000 
 9.724498395105883E+000  9.846817526925692E+000  9.970675244017608E+000  1.009609089940188E+001 
 1.022308408952985E+001  1.035167465734583E+001  1.048188269538766E+001  1.061372854892622E+001 
 1.074723281914433E+001  1.088241636635586E+001  1.101930031326506E+001  1.115790604826716E+001 
 1.129825522879025E+001  1.144036978467930E+001  1.158427192162284E+001  1.172998412462250E+001 
 1.187752916150646E+001  1.202693008648695E+001  1.217821024376242E+001  1.233139327116526E+001 
 1.248650310385510E+001  1.264356397805892E+001  1.280260043485785E+001  1.296363732402181E+001 
 1.312669980789239E+001  1.329181336531441E+001  1.345900379561717E+001  1.362829722264557E+001 
 1.379972009884196E+001  1.397329920937958E+001  1.414906167634754E+001  1.432703496298891E+001 
 1.450724687799186E+001  1.468972557983469E+001  1.487449958118587E+001  1.506159775335899E+001 
 1.525104933082413E+001  1.544288391577575E+001  1.563713148275796E+001  1.583382238334838E+001 
 1.603298735090033E+001  1.623465750534522E+001  1.643886435805502E+001  1.664563981676586E+001 