<UPF version="2.0.1">
  <PP_INFO>
    Generated using "atomic" code by A. Dal Corso  v.5.1.2
    Author: ADC
    Generation date: 30Jul2016
    Pseudopotential type: USPP
    Element: Bi
    Functional: PBE

    Suggested minimum cutoff for wavefunctions:  45. Ry
    Suggested minimum cutoff for charge density: 455. Ry
    The Pseudo was generated with a Scalar-Relativistic Calculation
    Local Potential by smoothing AE potential with Bessel fncs, cutoff radius:   2.1000
    Pseudopotential contains additional information for GIPAW reconstruction.

    Valence configuration: 
    nl pn  l   occ       Rcut    Rcut US       E pseu
    6S  1  0  2.00      1.700      2.000    -1.064016
    6P  2  1  3.00      2.200      2.400    -0.335939
    5D  3  2 10.00      0.900      1.600    -1.990502
    Generation configuration:
    6S  1  0  2.00      1.700      2.000    -1.064012
    6S  1  0  0.00      1.700      2.000     4.000000
    6P  2  1  3.00      2.200      2.400    -0.335938
    6P  2  1  0.00      2.200      2.400     6.000000
    5D  3  2 10.00      0.900      1.600    -1.990501
    5D  3  2  0.00      0.900      1.600     6.000000

    Pseudization used: troullier-martins
<PP_INPUTFILE>
 &input
   title='Bi',
   zed=83.,
   rel=1,
   config='[Xe] 4f14 6s2 6p3 5d10',
   iswitch=3,
   dft='PBE'
 /
 &inputp
   lpaw=.false.,
   pseudotype=3,
   file_pseudopw='Bi.pbe-dn-rrkjus_psl.1.0.0.UPF',
   author='ADC',
   lloc=-1,
   rcloc=2.1,
   which_augfun='PSQ',
   rmatch_augfun_nc=.true.,
   nlcc=.true.,
   new_core_ps=.true.,
   rcore=1.6,
   tm=.true.
 /
6
6S  1  0  2.00  0.00  1.70  2.00  0.0
6S  1  0  0.00  4.00  1.70  2.00  0.0
6P  2  1  3.00  0.00  2.20  2.40  0.0
6P  2  1  0.00  6.00  2.20  2.40  0.0
5D  3  2 10.00  0.00  0.90  1.60  0.0
5D  3  2  0.00  6.00  0.90  1.60  0.0
</PP_INPUTFILE>
  </PP_INFO>
  <!--                               -->
  <!-- END OF HUMAN READABLE SECTION -->
  <!--                               -->
  <PP_HEADER generated='Generated using "atomic" code by A. Dal Corso  v.5.1.2'
             author="ADC"
             date="30Jul2016"
             comment=""
             element="Bi"
             pseudo_type="USPP"
             relativistic="scalar"
             is_ultrasoft="T"
             is_paw="F"
             is_coulomb="F"
             has_so="F"
             has_wfc="F"
             has_gipaw="T"
             paw_as_gipaw="F"
             core_correction="T"
             functional="PBE"
             z_valence="1.500000000000000E+001"
             total_psenergy="-1.549065478855867E+002"
             wfc_cutoff="4.523541214314464E+001"
             rho_cutoff="4.546623035090402E+002"
             l_max="2"
             l_max_rho="4"
             l_local="-1"
             mesh_size="1283"
             number_of_wfc="3"
             number_of_proj="6"/>
  <PP_MESH dx="1.250000000000000E-002" mesh="1283" xmin="-7.000000000000000E+000" rmax="1.000000000000000E+002"
zmesh="8.300000000000000E+001">
    <PP_R type="real" size="1283" columns="4">
 1.098652970547610E-005  1.112472323697617E-005  1.126465502911545E-005  1.140634694652113E-005 
 1.154982112884361E-005  1.169509999421577E-005  1.184220624275589E-005  1.199116286011459E-005 
 1.214199312106639E-005  1.229472059314644E-005  1.244936914033298E-005  1.260596292677613E-005 
 1.276452642057362E-005  1.292508439759394E-005  1.308766194534769E-005  1.325228446690745E-005 
 1.341897768487715E-005  1.358776764541123E-005  1.375868072228443E-005  1.393174362101274E-005 
 1.410698338302620E-005  1.428442738989413E-005  1.446410336760362E-005  1.464603939089174E-005 
 1.483026388763230E-005  1.501680564327771E-005  1.520569380535680E-005  1.539695788802921E-005 
 1.559062777669696E-005  1.578673373267422E-005  1.598530639791556E-005  1.618637679980394E-005 
 1.638997635599872E-005  1.659613687934478E-005  1.680489058284336E-005  1.701627008468532E-005 
 1.723030841334789E-005  1.744703901275537E-005  1.766649574750486E-005  1.788871290815767E-005 
 1.811372521659726E-005  1.834156783145460E-005  1.857227635360181E-005  1.880588683171484E-005 
 1.904243576790623E-005  1.928196012342849E-005  1.952449732444948E-005  1.977008526790031E-005 
 2.001876232739679E-005  2.027056735923544E-005  2.052553970846475E-005  2.078371921503304E-005 
 2.104514622001349E-005  2.130986157190748E-005  2.157790663302735E-005  2.184932328595922E-005 
 2.212415394010731E-005  2.240244153832049E-005  2.268422956360214E-005  2.296956204590454E-005 
 2.325848356900855E-005  2.355103927748996E-005  2.384727488377346E-005  2.414723667527517E-005 
 2.445097152163535E-005  2.475852688204167E-005  2.506995081264493E-005  2.538529197406788E-005 
 2.570459963900853E-005  2.602792369993921E-005  2.635531467690223E-005  2.668682372540382E-005 
 2.702250264440727E-005  2.736240388442659E-005  2.770658055572212E-005  2.805508643659896E-005 
 2.840797598181004E-005  2.876530433106474E-005  2.912712731764462E-005  2.949350147712751E-005 
 2.986448405622119E-005  3.024013302170842E-005  3.062050706950432E-005  3.100566563382771E-005 
 3.139566889648793E-005  3.179057779628821E-005  3.219045403854760E-005  3.259536010474249E-005 
 3.300535926226950E-005  3.342051557433119E-005  3.384089390994594E-005  3.426655995408395E-005 
 3.469758021793064E-005  3.513402204927913E-005  3.557595364305357E-005  3.602344405196458E-005 
 3.647656319729898E-005  3.693538187984510E-005  3.739997179095553E-005  3.787040552374916E-005 
 3.834675658445382E-005  3.882909940389188E-005  3.931750934911022E-005  3.981206273515641E-005 
 4.031283683700328E-005  4.081990990162303E-005  4.133336116021367E-005  4.185327084057896E-005 
 4.237972017966420E-005  4.291279143624975E-005  4.345256790380398E-005  4.399913392349812E-005 
 4.455257489738473E-005  4.511297730174193E-005  4.568042870058563E-005  4.625501775935137E-005 
 4.683683425874856E-005  4.742596910878895E-005  4.802251436299145E-005  4.862656323276576E-005 
 4.923821010197671E-005  4.985755054169201E-005  5.048468132511541E-005  5.111970044270772E-005 
 5.176270711749807E-005  5.241380182058758E-005  5.307308628684826E-005  5.374066353081930E-005 
 5.441663786280320E-005  5.510111490516474E-005  5.579420160883428E-005  5.649600627001941E-005 
 5.720663854712623E-005  5.792620947789381E-005  5.865483149674414E-005  5.939261845235002E-005 
 6.013968562542430E-005  6.089614974673270E-005  6.166212901533315E-005  6.243774311704488E-005 
 6.322311324314921E-005  6.401836210932622E-005  6.482361397482916E-005  6.563899466190030E-005 
 6.646463157543098E-005  6.730065372286867E-005  6.814719173437479E-005  6.900437788323597E-005 
 6.987234610653182E-005  7.075123202606328E-005  7.164117296954330E-005  7.254230799205493E-005 
 7.345477789777878E-005  7.437872526199399E-005  7.531429445335617E-005  7.626163165645478E-005 
 7.722088489465521E-005  7.819220405322755E-005  7.917574090276643E-005  8.017164912290571E-005 
 8.118008432633093E-005  8.220120408309430E-005  8.323516794523533E-005  8.428213747171097E-005 
 8.534227625364006E-005  8.641574993986385E-005  8.750272626283002E-005  8.860337506480043E-005 
 8.971786832438961E-005  9.084638018343706E-005  9.198908697421641E-005  9.314616724698881E-005 
 9.431780179790089E-005  9.550417369723487E-005  9.670546831801398E-005  9.792187336496639E-005 
 9.915357890385578E-005  1.004007773911784E-004  1.016636637042353E-004  1.029424351715825E-004 
 1.042372916038631E-004  1.055484353250293E-004  1.068760712039549E-004  1.082204066864472E-004 
 1.095816518276605E-004  1.109600193249174E-004  1.123557245509437E-004  1.137689855875206E-004 
 1.152000232595603E-004  1.166490611696108E-004  1.181163257327931E-004  1.196020462121809E-004 
 1.211064547546215E-004  1.226297864270105E-004  1.241722792530211E-004  1.257341742502952E-004 
 1.273157154681043E-004  1.289171500254811E-004  1.305387281498332E-004  1.321807032160420E-004 
 1.338433317860519E-004  1.355268736489598E-004  1.372315918616070E-004  1.389577527896822E-004 
 1.407056261493428E-004  1.424754850493568E-004  1.442676060337786E-004  1.460822691251578E-004 
 1.479197578682944E-004  1.497803593745433E-004  1.516643643666747E-004  1.535720672243020E-004 
 1.555037660298780E-004  1.574597626152708E-004  1.594403626089270E-004  1.614458754836244E-004 
 1.634766146048305E-004  1.655328972796644E-004  1.676150448064773E-004  1.697233825250571E-004 
 1.718582398674609E-004  1.740199504094925E-004  1.762088519228220E-004  1.784252864277638E-004 
 1.806696002467195E-004  1.829421440582885E-004  1.852432729520655E-004  1.875733464841216E-004 
 1.899327287331866E-004  1.923217883575376E-004  1.947408986526009E-004  1.971904376092823E-004 
 1.996707879730272E-004  2.021823373036260E-004  2.047254780357721E-004  2.073006075403781E-004 
 2.099081281866689E-004  2.125484474050502E-004  2.152219777507715E-004  2.179291369683893E-004 
 2.206703480570383E-004  2.234460393365287E-004  2.262566445142700E-004  2.291026027530392E-004 
 2.319843587396016E-004  2.349023627541927E-004  2.378570707408769E-004  2.408489443787883E-004 
 2.438784511542698E-004  2.469460644339188E-004  2.500522635385511E-004  2.531975338180967E-004 
 2.563823667274358E-004  2.596072599031900E-004  2.628727172414792E-004  2.661792489766559E-004 
 2.695273717610313E-004  2.729176087456021E-004  2.763504896617943E-004  2.798265509042359E-004 
 2.833463356145676E-004  2.869103937663118E-004  2.905192822508057E-004  2.941735649642173E-004 
 2.978738128956554E-004  3.016206042163873E-004  3.054145243701800E-004  3.092561661647763E-004 
 3.131461298645223E-004  3.170850232841604E-004  3.210734618838010E-004  3.251120688650902E-004 
 3.292014752685852E-004  3.333423200723563E-004  3.375352502918292E-004  3.417809210808808E-004 
 3.460799958342100E-004  3.504331462909937E-004  3.548410526398469E-004  3.593044036251049E-004 
 3.638238966544398E-004  3.684002379078325E-004  3.730341424479144E-004  3.777263343316975E-004 
 3.824775467237103E-004  3.872885220105550E-004  3.921600119169088E-004  3.970927776229803E-004 
 4.020875898834468E-004  4.071452291478862E-004  4.122664856827233E-004  4.174521596947111E-004 
 4.227030614559643E-004  4.280200114305658E-004  4.334038404027671E-004  4.388553896067980E-004 
 4.443755108583134E-004  4.499650666874894E-004  4.556249304737962E-004  4.613559865824658E-004 
 4.671591305026748E-004  4.730352689874677E-004  4.789853201954376E-004  4.850102138341910E-004 
 4.911108913056172E-004  4.972883058529825E-004  5.035434227098786E-004  5.098772192510400E-004 
 5.162906851450625E-004  5.227848225090407E-004  5.293606460651496E-004  5.360191832991991E-004 
 5.427614746211786E-004  5.495885735278241E-004  5.565015467672304E-004  5.635014745055299E-004 
 5.705894504956739E-004  5.777665822483310E-004  5.850339912049394E-004  5.923928129129347E-004 
 5.998441972031801E-004  6.073893083696310E-004  6.150293253512580E-004  6.227654419162580E-004 
 6.305988668485829E-004  6.385308241368168E-004  6.465625531654233E-004  6.546953089084035E-004 
 6.629303621253886E-004  6.712689995601976E-004  6.797125241418958E-004  6.882622551883770E-004 
 6.969195286125119E-004  7.056856971308862E-004  7.145621304751653E-004  7.235502156061199E-004 
 7.326513569303370E-004  7.418669765196655E-004  7.511985143334152E-004  7.606474284433540E-004 
 7.702151952615370E-004  7.799033097709946E-004  7.897132857593297E-004  7.996466560552486E-004 
 8.097049727680694E-004  8.198898075302434E-004  8.302027517429227E-004  8.406454168246225E-004 
 8.512194344630075E-004  8.619264568698459E-004  8.727681570391742E-004  8.837462290087004E-004 
 8.948623881245048E-004  9.061183713090654E-004  9.175159373326546E-004  9.290568670881532E-004 
 9.407429638693153E-004  9.525760536525384E-004  9.645579853821757E-004  9.766906312594365E-004 
 9.889758870349253E-004  1.001415672304850E-003  1.014011930810969E-003  1.026766630744300E-003 
 1.039681765052657E-003  1.052759351752053E-003  1.066001434242016E-003  1.079410081624876E-003 
 1.092987389029067E-003  1.106735477936493E-003  1.120656496514018E-003  1.134752619949117E-003 
 1.149026050789755E-003  1.163479019288541E-003  1.178113783751205E-003  1.192932630889474E-003 
 1.207937876178358E-003  1.223131864217965E-003  1.238516969099837E-003  1.254095594777911E-003 
 1.269870175444149E-003  1.285843175908870E-003  1.302017091985895E-003  1.318394450882518E-003 
 1.334977811594385E-003  1.351769765305346E-003  1.368772935792335E-003  1.385989979835331E-003 
 1.403423587632494E-003  1.421076483220513E-003  1.438951424900236E-003  1.457051205667671E-003 
 1.475378653650385E-003  1.493936632549413E-003  1.512728042086715E-003  1.531755818458260E-003 
 1.551022934792822E-003  1.570532401616526E-003  1.590287267323256E-003  1.610290618650970E-003 
 1.630545581164008E-003  1.651055319741475E-003  1.671823039071750E-003  1.692851984153231E-003 
 1.714145440801370E-003  1.735706736162088E-003  1.757539239231656E-003  1.779646361383095E-003 
 1.802031556899218E-003  1.824698323512370E-003  1.847650202950945E-003  1.870890781492807E-003 
 1.894423690525634E-003  1.918252607114342E-003  1.942381254575625E-003  1.966813403059740E-003 
 1.991552870139597E-003  2.016603521407260E-003  2.041969271077954E-003  2.067654082601673E-003 
 2.093661969282472E-003  2.119996994905561E-003  2.146663274372271E-003  2.173664974343023E-003 
 2.201006313888371E-003  2.228691565148244E-003  2.256725053999483E-003  2.285111160731751E-003 
 2.313854320731978E-003  2.342959025177394E-003  2.372429821737278E-003  2.402271315283556E-003 
 2.432488168610307E-003  2.463085103162338E-003  2.494066899772925E-003  2.525438399410817E-003 
 2.557204503936664E-003  2.589370176868924E-003  2.621940444159434E-003  2.654920394978723E-003 
 2.688315182511202E-003  2.722130024760372E-003  2.756370205364126E-003  2.791041074420348E-003 
 2.826148049322865E-003  2.861696615607929E-003  2.897692327811352E-003  2.934140810336395E-003 
 2.971047758332609E-003  3.008418938585708E-003  3.046260190418632E-003  3.084577426603977E-003 
 3.123376634287851E-003  3.162663875925390E-003  3.202445290228033E-003  3.242727093122697E-003 
 3.283515578723044E-003  3.324817120312931E-003  3.366638171342258E-003  3.408985266435338E-003 
 3.451865022411929E-003  3.495284139321149E-003  3.539249401488349E-003  3.583767678575189E-003 
 3.628845926653040E-003  3.674491189289871E-003  3.720710598650842E-003  3.767511376612697E-003 
 3.814900835892210E-003  3.862886381188806E-003  3.911475510341563E-003  3.960675815500773E-003 
 4.010494984314212E-003  4.060940801128367E-003  4.112021148204746E-003  4.163744006951501E-003 
 4.216117459170547E-003  4.269149688320348E-003  4.322848980794600E-003  4.377223727217006E-003 
 4.432282423752317E-003  4.488033673433892E-003  4.544486187507917E-003  4.601648786794568E-003 
 4.659530403066283E-003  4.718140080443361E-003  4.777486976807144E-003  4.837580365230926E-003 
 4.898429635428908E-003  4.960044295223359E-003  5.022433972030222E-003  5.085608414363440E-003 
 5.149577493358154E-003  5.214351204313103E-003  5.279939668252405E-003  5.346353133506987E-003 
 5.413601977315924E-003  5.481696707447876E-003  5.550647963842965E-003  5.620466520275286E-003 
 5.691163286036321E-003  5.762749307639568E-003  5.835235770546537E-003  5.908634000914534E-003 
 5.982955467366384E-003  6.058211782782420E-003  6.134414706115051E-003  6.211576144226076E-003 
 6.289708153747185E-003  6.368822942963827E-003  6.448932873722775E-003  6.530050463363701E-003 
 6.612188386675019E-003  6.695359477874358E-003  6.779576732613929E-003  6.864853310011121E-003 
 6.951202534704660E-003  7.038637898936578E-003  7.127173064660427E-003  7.216821865675973E-003 
 7.307598309790764E-003  7.399516581008890E-003  7.492591041747233E-003  7.586836235079643E-003 
 7.682266887009323E-003  7.778897908769784E-003  7.876744399154789E-003  7.975821646877521E-003 
 8.076145132959515E-003  8.177730533149576E-003  8.280593720373160E-003  8.384750767212555E-003 
 8.490217948418238E-003  8.597011743451842E-003  8.705148839061117E-003  8.814646131887250E-003 
 8.925520731105035E-003  9.037789961096169E-003  9.151471364156252E-003  9.266582703235797E-003 
 9.383141964715722E-003  9.501167361217793E-003  9.620677334450328E-003  9.741690558089794E-003 
 9.864225940698584E-003  9.988302628679523E-003  1.011394000926756E-002  1.024115771355902E-002 
 1.036997561957901E-002  1.050041385538745E-002  1.063249280222404E-002  1.076623309769296E-002 
 1.090165563898747E-002  1.103878158615516E-002  1.117763236540426E-002  1.131822967245152E-002 
 1.146059547591222E-002  1.160475202073280E-002  1.175072183166666E-002  1.189852771679376E-002 
 1.204819277108434E-002  1.219974038000765E-002  1.235319422318589E-002  1.250857827809428E-002 
 1.266591682380753E-002  1.282523444479349E-002  1.298655603475460E-002  1.314990680051749E-002 
 1.331531226597166E-002  1.348279827605761E-002  1.365239100080514E-002  1.382411693942256E-002 
 1.399800292443715E-002  1.417407612588784E-002  1.435236405557059E-002  1.453289457133712E-002 
 1.471569588144783E-002  1.490079654897934E-002  1.508822549628753E-002  1.527801200952675E-002 
 1.547018574322580E-002  1.566477672492158E-002  1.586181535985087E-002  1.606133243570125E-002 
 1.626335912742173E-002  1.646792700209393E-002  1.667506802386448E-002  1.688481455893944E-002 
 1.709719938064166E-002  1.731225567453163E-002  1.753001704359279E-002  1.775051751348212E-002 
 1.797379153784663E-002  1.819987400370691E-002  1.842880023690819E-002  1.866060600764016E-002 
 1.889532753602613E-002  1.913300149778246E-002  1.937366502994920E-002  1.961735573669290E-002 
 1.986411169518227E-002  2.011397146153787E-002  2.036697407685653E-002  2.062315907331163E-002 
 2.088256648033008E-002  2.114523683084697E-002  2.141121116763902E-002  2.168053104973746E-002 
 2.195323855892181E-002  2.222937630629519E-002  2.250898743894244E-002  2.279211564667193E-002 
 2.307880516884213E-002  2.336910080127416E-002  2.366304790325119E-002  2.396069240460593E-002 
 2.426208081289731E-002  2.456726022067730E-002  2.487627831284925E-002  2.518918337411876E-002 
 2.550602429653825E-002  2.582685058714650E-002  2.615171237570413E-002  2.648066042252654E-002 
 2.681374612641529E-002  2.715102153268926E-002  2.749253934131692E-002  2.783835291515066E-002 
 2.818851628826496E-002  2.854308417439930E-002  2.890211197550721E-002  2.926565579041311E-002 
 2.963377242357772E-002  3.000651939397388E-002  3.038395494407409E-002  3.076613804895093E-002 
 3.115312842549213E-002  3.154498654173134E-002  3.194177362629648E-002  3.234355167797678E-002 
 3.275038347541018E-002  3.316233258689286E-002  3.357946338031147E-002  3.400184103320120E-002 
 3.442953154292971E-002  3.486260173700917E-002  3.530111928353862E-002  3.574515270177673E-002 
 3.619477137284858E-002  3.665004555058633E-002  3.711104637250640E-002  3.757784587092525E-002 
 3.805051698421408E-002  3.852913356819608E-002  3.901377040768630E-002  3.950450322817679E-002 
 4.000140870766929E-002  4.050456448865579E-002  4.101404919025082E-002  4.152994242047563E-002 
 4.205232478869689E-002  4.258127791822257E-002  4.311688445905518E-002  4.365922810080652E-002 
 4.420839358577405E-002  4.476446672218198E-002  4.532753439758933E-002  4.589768459246581E-002 
 4.647500639393944E-002  4.705959000971632E-002  4.765152678217563E-002  4.825090920264252E-002 
 4.885783092583947E-002  4.947238678452062E-002  5.009467280428929E-002  5.072478621860193E-002 
 5.136282548396171E-002  5.200889029530174E-002  5.266308160156333E-002  5.332550162146913E-002 
 5.399625385949475E-002  5.467544312204226E-002  5.536317553381554E-002  5.605955855440323E-002 
 5.676470099506921E-002  5.747871303575425E-002  5.820170624229257E-002  5.893379358384345E-002 
 5.967508945054353E-002  6.042570967138027E-002  6.118577153229014E-002  6.195539379448544E-002 
 6.273469671301024E-002  6.352380205553121E-002  6.432283312136361E-002  6.513191476073694E-002 
 6.595117339430367E-002  6.678073703289185E-002  6.762073529750789E-002  6.847129943958974E-002 
 6.933256236151483E-002  7.020465863736722E-002  7.108772453396407E-002  7.198189803214845E-002 
 7.288731884834880E-002  7.380412845640948E-002  7.473247010969725E-002  7.567248886348393E-002 
 7.662433159761239E-002  7.758814703944655E-002  7.856408578710979E-002  7.955230033301729E-002 
 8.055294508770207E-002  8.156617640394305E-002  8.259215260119497E-002  8.363103399032573E-002 
 8.468298289866627E-002  8.574816369537346E-002  8.682674281711404E-002  8.791888879407032E-002 
 8.902477227627290E-002  9.014456606026609E-002  9.127844511610661E-002  9.242658661470395E-002 
 9.358916995550334E-002  9.476637679451677E-002  9.595839107270819E-002  9.716539904473344E-002 
 9.838758930804394E-002  9.962515283235511E-002  1.008782829894851E-001  1.021471755835709E-001 
 1.034320288816614E-001  1.047330436446988E-001  1.060504231588869E-001  1.073843732674547E-001 
 1.087351024028209E-001  1.101028216191606E-001  1.114877446253842E-001  1.128900878185293E-001 
 1.143100703175726E-001  1.157479139976688E-001  1.172038435248179E-001  1.186780863909709E-001 
 1.201708729495750E-001  1.216824364515669E-001  1.232130130818194E-001  1.247628419960445E-001 
 1.263321653581635E-001  1.279212283781447E-001  1.295302793503175E-001  1.311595696921705E-001 
 1.328093539836338E-001  1.344798900068598E-001  1.361714387865011E-001  1.378842646304954E-001 
 1.396186351713663E-001  1.413748214080387E-001  1.431530977481855E-001  1.449537420511029E-001 
 1.467770356711262E-001  1.486232635015936E-001  1.504927140193592E-001  1.523856793298702E-001 
 1.543024552128077E-001  1.562433411683028E-001  1.582086404637353E-001  1.601986601811179E-001 
 1.622137112650808E-001  1.642541085714550E-001  1.663201709164710E-001  1.684122211265741E-001 
 1.705305860888651E-001  1.726755968021801E-001  1.748475884288063E-001  1.770469003468547E-001 
 1.792738762032873E-001  1.815288639676119E-001  1.838122159862552E-001  1.861242890376148E-001 
 1.884654443878093E-001  1.908360478471257E-001  1.932364698271768E-001  1.956670853987814E-001 
 1.981282743505670E-001  2.006204212483150E-001  2.031439154950488E-001  2.056991513918778E-001 
 2.082865281996104E-001  2.109064502011360E-001  2.135593267645981E-001  2.162455724073573E-001 
 2.189656068607599E-001  2.217198551357238E-001  2.245087475891448E-001  2.273327199911432E-001 
 2.301922135931526E-001  2.330876751968653E-001  2.360195572240484E-001  2.389883177872329E-001 
 2.419944207612972E-001  2.450383358559473E-001  2.481205386891089E-001  2.512415108612462E-001 
 2.544017400306099E-001  2.576017199894379E-001  2.608419507411093E-001  2.641229385782707E-001 
 2.674451961619478E-001  2.708092426016461E-001  2.742156035364666E-001  2.776648112172361E-001 
 2.811574045896714E-001  2.846939293785933E-001  2.882749381731946E-001  2.919009905133853E-001 
 2.955726529772214E-001  2.992904992694319E-001  3.030551103110650E-001  3.068670743302542E-001 
 3.107269869541333E-001  3.146354513019035E-001  3.185930780790699E-001  3.226004856728694E-001 
 3.266583002488905E-001  3.307671558489169E-001  3.349276944899963E-001  3.391405662647549E-001 
 3.434064294429797E-001  3.477259505744703E-001  3.520998045931921E-001  3.565286749227347E-001 
 3.610132535830967E-001  3.655542412988188E-001  3.701523476084691E-001  3.748082909755140E-001 
 3.795227989005779E-001  3.842966080351145E-001  3.891304642965147E-001  3.940251229846527E-001 
 3.989813488999074E-001  4.039999164626622E-001  4.090816098343079E-001  4.142272230397738E-001 
 4.194375600915909E-001  4.247134351155246E-001  4.300556724777820E-001  4.354651069138185E-001 
 4.409425836587715E-001  4.464889585795253E-001  4.521050983084458E-001  4.577918803787928E-001 
 4.635501933618330E-001  4.693809370056870E-001  4.752850223759103E-001  4.812633719978546E-001 
 4.873169200008124E-001  4.934466122639735E-001  4.996534065642267E-001  5.059382727258074E-001 
 5.123021927718407E-001  5.187461610777827E-001  5.252711845267892E-001  5.318782826670516E-001 
 5.385684878710947E-001  5.453428454970936E-001  5.522024140522110E-001  5.591482653579877E-001 
 5.661814847178235E-001  5.733031710865506E-001  5.805144372421545E-001  5.878164099596441E-001 
 5.952102301871107E-001  6.026970532240098E-001  6.102780489016707E-001  6.179544017660928E-001 
 6.257273112630301E-001  6.335979919254030E-001  6.415676735630806E-001  6.496376014550309E-001 
 6.578090365439064E-001  6.660832556330661E-001  6.744615515860741E-001  6.829452335287214E-001 
 6.915356270535691E-001  7.002340744270842E-001  7.090419347993669E-001  7.179605844165180E-001 
 7.269914168356875E-001  7.361358431428118E-001  7.453952921731071E-001  7.547712107343243E-001 
 7.642650638328113E-001  7.738783349024332E-001  7.836125260363496E-001  7.934691582217313E-001 
 8.034497715774122E-001  8.135559255945319E-001  8.237891993802196E-001  8.341511919043210E-001 
 8.446435222492513E-001  8.552678298629751E-001  8.660257748151695E-001  8.769190380566234E-001 
 8.879493216818777E-001  8.991183491951917E-001  9.104278657798396E-001  9.218796385707938E-001 
 9.334754569308551E-001  9.452171327302308E-001  9.571065006296546E-001  9.691454183670519E-001 
 9.813357670478089E-001  9.936794514387123E-001  1.006178400265558E+000  1.018834566514530E+000 
 1.031649927737357E+000  1.044626486360300E+000  1.057766269997047E+000  1.071071331765522E+000 
 1.084543750608697E+000  1.098185631619427E+000  1.111999106369372E+000  1.125986333242069E+000 
 1.140149497770170E+000  1.154490812976950E+000  1.169012519722090E+000  1.183716887051808E+000 
 1.198606212553421E+000  1.213682822714327E+000  1.228949073285538E+000  1.244407349649769E+000 
 1.260060067194147E+000  1.275909671687639E+000  1.291958639663187E+000  1.308209478804694E+000 
 1.324664728338839E+000  1.341326959431836E+000  1.358198775591197E+000  1.375282813072519E+000 
 1.392581741291418E+000  1.410098263240625E+000  1.427835115912329E+000  1.445795070725850E+000 
 1.463980933960662E+000  1.482395547194898E+000  1.501041787749343E+000  1.519922569137014E+000 
 1.539040841518422E+000  1.558399592162518E+000  1.578001845913477E+000  1.597850665663333E+000 
 1.617949152830549E+000  1.638300447844640E+000  1.658907730636852E+000  1.679774221137050E+000 
 1.700903179776831E+000  1.722297907998964E+000  1.743961748773267E+000  1.765898087118930E+000 
 1.788110350633453E+000  1.810602010028205E+000  1.833376579670718E+000  1.856437618133842E+000 
 1.879788728751748E+000  1.903433560182981E+000  1.927375806980562E+000  1.951619210169257E+000 
 1.976167557830144E+000  2.001024685692483E+000  2.026194477733078E+000  2.051680866783146E+000 
 2.077487835142823E+000  2.103619415203427E+000  2.130079690077499E+000  2.156872794236827E+000 
 2.184002914158450E+000  2.211474288978795E+000  2.239291211156076E+000  2.267458027140970E+000 
 2.295979138055783E+000  2.324859000382128E+000  2.354102126657240E+000  2.383713086179105E+000 
 2.413696505720384E+000  2.444057070251384E+000  2.474799523672089E+000  2.505928669553381E+000 
 2.537449371887647E+000  2.569366555848748E+000  2.601685208561616E+000  2.634410379881496E+000 
 2.667547183182978E+000  2.701100796159003E+000  2.735076461629857E+000  2.769479488362396E+000 
 2.804315251899546E+000  2.839589195400224E+000  2.875306830489878E+000  2.911473738121648E+000 
 2.948095569448439E+000  2.985178046705907E+000  3.022726964106561E+000  3.060748188745148E+000 
 3.099247661515361E+000  3.138231398038154E+000  3.177705489601678E+000  3.217676104113038E+000 
 3.258149487062084E+000  3.299131962497236E+000  3.340629934013662E+000  3.382649885753850E+000 
 3.425198383420734E+000  3.468282075303655E+000  3.511907693317111E+000  3.556082054052678E+000 
 3.600812059844103E+000  3.646104699845781E+000  3.691967051124875E+000  3.738406279767065E+000 
 3.785429641996316E+000  3.833044485308651E+000  3.881258249620199E+000  3.930078468429739E+000 
 3.979512769995770E+000  4.029568878528495E+000  4.080254615396718E+000  4.131577900349932E+000 
 4.183546752755844E+000  4.236169292853359E+000  4.289453743021435E+000  4.343408429063828E+000 
 4.398041781509987E+000  4.453362336932400E+000  4.509378739280388E+000  4.566099741230790E+000 
 4.623534205555569E+000  4.681691106506612E+000  4.740579531218030E+000  4.800208681125976E+000 
 4.860587873406447E+000  4.921726542431091E+000  4.983634241241311E+000  5.046320643041016E+000 
 5.109795542708007E+000  5.174068858324505E+000  5.239150632726851E+000  5.305051035074686E+000 
 5.371780362439971E+000  5.439349041415849E+000  5.507767629745891E+000  5.577046817973730E+000 
 5.647197431113458E+000  5.718230430341119E+000  5.790156914707342E+000  5.862988122871653E+000 
 5.936735434858515E+000  6.011410373835446E+000  6.087024607913608E+000  6.163589951970894E+000 
 6.241118369498096E+000  6.319621974468198E+000  6.399113033229170E+000  6.479603966420692E+000 
 6.561107350914813E+000  6.643635921781190E+000  6.727202574276940E+000  6.811820365861508E+000 
 6.897502518237010E+000  6.984262419414053E+000  7.072113625803721E+000  7.161069864335762E+000 
 7.251145034603400E+000  7.342353211035278E+000  7.434708645094502E+000  7.528225767505553E+000 
 7.622919190509085E+000  7.718803710145070E+000  7.815894308564807E+000  7.914206156371804E+000 
 8.013754614992312E+000  8.114555239075536E+000  8.216623778924042E+000  8.319976182954871E+000 
 8.424628600191395E+000  8.530597382786739E+000  8.637899088578793E+000  8.746550483677366E+000 
 8.856568545084023E+000  8.967970463344663E+000  9.080773645235679E+000  9.194995716483755E+000 
 9.310654524519880E+000  9.427768141268151E+000  9.546354865969423E+000  9.666433228040711E+000 
 9.788021989970410E+000  9.911140150249908E+000  1.003580694634227E+001  1.016204185768799E+001 
 1.028986460874881E+001  1.041929517208966E+001  1.055035377149935E+001  1.068306088515071E+001 
 1.081743724880022E+001  1.095350385902810E+001  1.109128197651905E+001  1.123079312938420E+001 
 1.137205911652506E+001  1.151510201103949E+001  1.165994416367080E+001  1.180660820630005E+001 