<UPF version="2.0.1">
  <PP_INFO>
    Generated using "atomic" code by A. Dal Corso  v.5.1.2
    Author: ADC
    Generation date: 30Jul2016
    Pseudopotential type: PAW
    Element: Ce
    Functional:  SLA  PW   PBX  PBC

    Suggested minimum cutoff for wavefunctions: 173. Ry
    Suggested minimum cutoff for charge density: 692. Ry
    The Pseudo was generated with a Scalar-Relativistic Calculation
    Local Potential by smoothing AE potential with Bessel fncs, cutoff radius:   2.0000
    Pseudopotential contains additional information for GIPAW reconstruction.

    Valence configuration: 
    nl pn  l   occ       Rcut    Rcut US       E pseu
    5S  1  0  2.00      0.900      1.600    -3.104278
    6S  2  0  2.00      0.900      1.600    -0.284930
    5P  2  1  6.00      1.000      1.900    -1.801467
    4D  3  2 10.00      0.900      1.000    -8.393144
    5D  4  2  1.50      0.950      1.100    -0.262043
    4F  4  3  0.50      1.000      1.300    -0.608885
    Generation configuration:
    5S  1  0  2.00      0.900      1.600    -3.104343
    6S  2  0  2.00      0.900      1.600    -0.284939
    5P  2  1  6.00      1.000      1.900    -1.801513
    6P  3  1  0.00      1.000      1.900     0.300000
    4D  3  2 10.00      0.900      1.000    -8.393326
    5D  4  2  1.50      0.950      1.100    -0.262065
    4F  4  3  0.50      1.000      1.300    -0.609014
    4F  4  3  0.00      1.000      1.300     1.000000

    Pseudization used: troullier-martins
<PP_INPUTFILE>
 &input
   title='Ce',
   zed=58.0,
   rel=1,
   config='[Xe] 4f0.5 5d1.5 6s2.0 6p0.0',
   iswitch=3,
   dft='PBE'
 /
 &inputp
   lpaw=.true.,
   pseudotype=3,
   file_pseudopw='Ce.pbe-spdfn-kjpaw_psl.1.0.0.UPF',
   author='ADC',
   lloc=-1,
   rcloc=2.0,
   which_augfun='PSQ',
   rmatch_augfun_nc=.true.,
   nlcc=.true.,
   new_core_ps=.true.,
   rcore=1.2,
   tm=.true.
 /
8
5S  1  0  2.00  0.00  0.90  1.60  0.0
6S  2  0  2.00  0.00  0.90  1.60  0.0
5P  2  1  6.00  0.00  1.00  1.90  0.0
6P  3  1  0.00  0.30  1.00  1.90  0.0
4D  3  2 10.00  0.00  0.90  1.00  0.0
5D  4  2  1.50  0.00  0.95  1.10  0.0
4F  4  3  0.50  0.00  1.00  1.30  0.0
4F  4  3  0.00  1.00  1.00  1.30  0.0
</PP_INPUTFILE>
  </PP_INFO>
  <!--                               -->
  <!-- END OF HUMAN READABLE SECTION -->
  <!--                               -->
  <PP_HEADER generated='Generated using "atomic" code by A. Dal Corso  v.5.1.2'
             author="ADC"
             date="30Jul2016"
             comment=""
             element="Ce"
             pseudo_type="PAW"
             relativistic="scalar"
             is_ultrasoft="T"
             is_paw="T"
             is_coulomb="F"
             has_so="F"
             has_wfc="T"
             has_gipaw="T"
             paw_as_gipaw="T"
             core_correction="T"
             functional=" SLA  PW   PBX  PBC"
             z_valence="2.200000000000000E+001"
             total_psenergy="-7.884933972176177E+002"
             wfc_cutoff="1.731154029098434E+002"
             rho_cutoff="6.924616116393737E+002"
             l_max="3"
             l_max_rho="6"
             l_local="-1"
             mesh_size="1255"
             number_of_wfc="6"
             number_of_proj="8"/>
  <PP_MESH dx="1.250000000000000E-002" mesh="1255" xmin="-7.000000000000000E+000" rmax="1.000000000000000E+002"
zmesh="5.800000000000000E+001">
    <PP_R type="real" size="1255" columns="4">
 1.572210285438821E-005  1.591986256325900E-005  1.612010978304452E-005  1.632287580278024E-005 
 1.652819230506931E-005  1.673609137103291E-005  1.694660548532308E-005  1.715976754119847E-005 
 1.737561084566397E-005  1.759416912467508E-005  1.781547652840753E-005  1.803956763659342E-005 
 1.826647746392431E-005  1.849624146552236E-005  1.872889554248031E-005  1.896447604747100E-005 
 1.920301979042764E-005  1.944456404429539E-005  1.968914655085530E-005  1.993680552662169E-005 
 2.018757966881335E-005  2.044150816140022E-005  2.069863068122588E-005  2.095898740420715E-005 
 2.122261901161174E-005  2.148956669641465E-005  2.175987216973473E-005  2.203357766735215E-005 
 2.231072595630772E-005  2.259136034158552E-005  2.287552467287917E-005  2.316326335144357E-005 
 2.345462133703265E-005  2.374964415492443E-005  2.404837790303446E-005  2.435086925911865E-005 
 2.465716548806680E-005  2.496731444928785E-005  2.528136460418798E-005  2.559936502374288E-005 
 2.592136539616504E-005  2.624741603466779E-005  2.657756788532673E-005  2.691187253504021E-005 
 2.725038221958995E-005  2.759314983180283E-005  2.794022892981563E-005  2.829167374544355E-005 
 2.864753919265403E-005  2.900788087614726E-005  2.937275510004438E-005  2.974221887668521E-005 
 3.011632993553655E-005  3.049514673221243E-005  3.087872845760810E-005  3.126713504714854E-005 
 3.166042719015357E-005  3.205866633932071E-005  3.246191472032719E-005  3.287023534155304E-005 
 3.328369200392602E-005  3.370234931089081E-005  3.412627267850339E-005  3.455552834565240E-005 
 3.499018338440921E-005  3.543030571050791E-005  3.587596409395740E-005  3.632722816978680E-005 
 3.678416844892600E-005  3.724685632922335E-005  3.771536410660146E-005  3.818976498635374E-005 
 3.867013309458281E-005  3.915654348978288E-005  3.964907217456786E-005  4.014779610754679E-005 
 4.065279321534884E-005  4.116414240479954E-005  4.168192357525006E-005  4.220621763106177E-005 
 4.273710649424756E-005  4.327467311727239E-005  4.381900149601480E-005  4.437017668289138E-005 
 4.492828480014652E-005  4.549341305330899E-005  4.606564974481812E-005  4.664508428782115E-005 
 4.723180722014428E-005  4.782591021843946E-005  4.842748611250884E-005  4.903662889980979E-005 
 4.965343376014212E-005  5.027799707052014E-005  5.091041642023184E-005  5.155079062608725E-005 
 5.219921974785889E-005  5.285580510391626E-005  5.352064928705704E-005  5.419385618053759E-005 
 5.487553097430460E-005  5.556578018143149E-005  5.626471165476118E-005  5.697243460375831E-005 
 5.768905961157366E-005  5.841469865232261E-005  5.914946510858163E-005  5.989347378910438E-005 
 6.064684094676084E-005  6.140968429670224E-005  6.218212303475397E-005  6.296427785604041E-005 
 6.375627097384366E-005  6.455822613869966E-005  6.537026865773461E-005  6.619252541424420E-005 
 6.702512488751949E-005  6.786819717292212E-005  6.872187400221191E-005  6.958628876413032E-005 
 7.046157652524253E-005  7.134787405104201E-005  7.224531982732033E-005  7.315405408180587E-005 
 7.407421880607483E-005  7.500595777773740E-005  7.594941658290355E-005  7.690474263893106E-005 
 7.787208521745976E-005  7.885159546773574E-005  7.984342644022837E-005  8.084773311054502E-005 
 8.186467240364616E-005  8.289440321836527E-005  8.393708645223729E-005  8.499288502663882E-005 
 8.606196391224512E-005  8.714449015480714E-005  8.824063290125261E-005  8.935056342611595E-005 
 9.047445515829974E-005  9.161248370817371E-005  9.276482689501414E-005  9.393166477478836E-005 
 9.511317966828917E-005  9.630955618962241E-005  9.752098127505359E-005  9.874764421221699E-005 
 9.998973666969209E-005  1.012474527269526E-004  1.025209889046913E-004  1.038105441955269E-004 
 1.051163200950972E-004  1.064385206335431E-004  1.077773524073890E-004  1.091330246118232E-004 
 1.105057490733859E-004  1.118957402830670E-004  1.133032154298209E-004  1.147283944345030E-004 
 1.161714999842322E-004  1.176327575671867E-004  1.191123955078368E-004  1.206106450026209E-004 
 1.221277401560711E-004  1.236639180173914E-004  1.252194186174981E-004  1.267944850065247E-004 
 1.283893632917989E-004  1.300043026762979E-004  1.316395554975856E-004  1.332953772672426E-004 
 1.349720267107892E-004  1.366697658081120E-004  1.383888598343993E-004  1.401295774015899E-004 
 1.418921905003454E-004  1.436769745425484E-004  1.454842084043367E-004  1.473141744696784E-004 
 1.491671586744937E-004  1.510434505513350E-004  1.529433432746251E-004  1.548671337064675E-004 
 1.568151224430314E-004  1.587876138615197E-004  1.607849161677298E-004  1.628073414442106E-004 
 1.648552056990259E-004  1.669288289151326E-004  1.690285351003763E-004  1.711546523381209E-004 
 1.733075128385101E-004  1.754874529903770E-004  1.776948134138060E-004  1.799299390133535E-004 
 1.821931790319423E-004  1.844848871054298E-004  1.868054213178647E-004  1.891551442574395E-004 
 1.915344230731432E-004  1.939436295321321E-004  1.963831400778168E-004  1.988533358886831E-004 
 2.013546029378526E-004  2.038873320533900E-004  2.064519189793728E-004  2.090487644377259E-004 
 2.116782741908351E-004  2.143408591049499E-004  2.170369352143793E-004  2.197669237865012E-004 
 2.225312513875840E-004  2.253303499494393E-004  2.281646568369128E-004  2.310346149162212E-004 
 2.339406726241540E-004  2.368832840381404E-004  2.398629089472003E-004  2.428800129237885E-004 
 2.459350673965389E-004  2.490285497239290E-004  2.521609432688659E-004  2.553327374742138E-004 
 2.585444279392710E-004  2.617965164972060E-004  2.650895112934730E-004  2.684239268652084E-004 
 2.718002842216291E-004  2.752191109254418E-004  2.786809411752737E-004  2.821863158891453E-004 
 2.857357827889871E-004  2.893298964862234E-004  2.929692185684325E-004  2.966543176870928E-004 
 3.003857696464399E-004  3.041641574934339E-004  3.079900716088627E-004  3.118641097995916E-004 
 3.157868773919686E-004  3.197589873264118E-004  3.237810602531795E-004  3.278537246293492E-004 
 3.319776168170160E-004  3.361533811827241E-004  3.403816701981514E-004  3.446631445420591E-004 
 3.489984732035240E-004  3.533883335864700E-004  3.578334116155128E-004  3.623344018431385E-004 
 3.668920075582272E-004  3.715069408959443E-004  3.761799229490133E-004  3.809116838803869E-004 
 3.857029630373379E-004  3.905545090669822E-004  3.954670800332574E-004  4.004414435353720E-004 
 4.054783768277432E-004  4.105786669414462E-004  4.157431108071875E-004  4.209725153798282E-004 
 4.262676977644724E-004  4.316294853441405E-004  4.370587159090508E-004  4.425562377875247E-004 
 4.481229099785405E-004  4.537596022859537E-004  4.594671954544049E-004  4.652465813069394E-004 
 4.710986628843546E-004  4.770243545863031E-004  4.830245823141694E-004  4.891002836157431E-004 
 4.952524078317143E-004  5.014819162440082E-004  5.077897822259878E-004  5.141769913945467E-004 
 5.206445417641121E-004  5.271934439025879E-004  5.338247210892568E-004  5.405394094746705E-004 
 5.473385582425509E-004  5.542232297737253E-004  5.611944998121281E-004  5.682534576328856E-004 
 5.754012062125186E-004  5.826388624012855E-004  5.899675570976902E-004  5.973884354251901E-004 
 6.049026569111214E-004  6.125113956678787E-004  6.202158405763736E-004  6.280171954717972E-004 
 6.359166793317244E-004  6.439155264665796E-004  6.520149867125014E-004  6.602163256266321E-004 
 6.685208246848622E-004  6.769297814820659E-004  6.854445099348503E-004  6.940663404868595E-004 
 7.027966203166590E-004  7.116367135482336E-004  7.205880014641365E-004  7.296518827213159E-004 
 7.388297735696584E-004  7.481231080732824E-004  7.575333383346107E-004  7.670619347212676E-004 
 7.767103860958245E-004  7.864802000484380E-004  7.963729031324159E-004  8.063900411027410E-004 
 8.165331791576022E-004  8.268039021829565E-004  8.372038150001720E-004  8.477345426167860E-004 
 8.583977304804128E-004  8.691950447358513E-004  8.801281724854210E-004  8.911988220525760E-004 
 9.024087232488341E-004  9.137596276440655E-004  9.252533088401747E-004  9.368915627482326E-004 
 9.486762078690906E-004  9.606090855775241E-004  9.726920604099543E-004  9.849270203557809E-004 
 9.973158771523878E-004  1.009860566583854E-003  1.022563048783426E-003  1.035425308539792E-003 
 1.048449355607206E-003  1.061637225019521E-003  1.074990977408163E-003  1.088512699324110E-003 
 1.102204503563924E-003  1.116068529499872E-003  1.130106943414213E-003  1.144321938837683E-003 
 1.158715736892237E-003  1.173290586638107E-003  1.188048765425217E-003  1.202992579249029E-003 
 1.218124363110856E-003  1.233446481382711E-003  1.248961328176749E-003  1.264671327719347E-003 
 1.280578934729895E-003  1.296686634804352E-003  1.312996944803626E-003  1.329512413246840E-003 
 1.346235620709537E-003  1.363169180226908E-003  1.380315737702079E-003  1.397677972319539E-003 
 1.415258596963772E-003  1.433060358643148E-003  1.451086038919145E-003  1.469338454340981E-003 
 1.487820456885698E-003  1.506534934403800E-003  1.525484811070471E-003  1.544673047842495E-003 
 1.564102642920906E-003  1.583776632219464E-003  1.603698089839026E-003  1.623870128547874E-003 
 1.644295900268098E-003  1.664978596568084E-003  1.685921449161208E-003  1.707127730410798E-003 
 1.728600753841444E-003  1.750343874656743E-003  1.772360490263559E-003  1.794654040802873E-003 
 1.817228009687316E-003  1.840085924145452E-003  1.863231355772919E-003  1.886667921090500E-003 
 1.910399282109206E-003  1.934429146902478E-003  1.958761270185582E-003  1.983399453902283E-003 
 2.008347547818914E-003  2.033609450125907E-003  2.059189108046890E-003  2.085090518455460E-003 
 2.111317728499689E-003  2.137874836234505E-003  2.164765991262022E-003  2.191995395379924E-003 
 2.219567303238004E-003  2.247486023002960E-003  2.275755917031557E-003  2.304381402552250E-003 
 2.333366952355392E-003  2.362717095492111E-003  2.392436417981988E-003  2.422529563529624E-003 
 2.453001234250236E-003  2.483856191404367E-003  2.515099256141852E-003  2.546735310255118E-003 
 2.578769296941985E-003  2.611206221578046E-003  2.644051152498767E-003  2.677309221791431E-003 
 2.710985626097029E-003  2.745085627422247E-003  2.779614553961671E-003  2.814577800930317E-003 
 2.849980831406665E-003  2.885829177186251E-003  2.922128439646038E-003  2.958884290619635E-003 
 2.996102473283537E-003  3.033788803054509E-003  3.071949168498250E-003  3.110589532249497E-003 
 3.149715931943703E-003  3.189334481160419E-003  3.229451370378570E-003  3.270072867943712E-003 
 3.311205321047487E-003  3.352855156719374E-003  3.395028882830932E-003  3.437733089112675E-003 
 3.480974448183715E-003  3.524759716594381E-003  3.569095735881944E-003  3.613989433639617E-003 
 3.659447824599019E-003  3.705478011726218E-003  3.752087187331604E-003  3.799282634193689E-003 
 3.847071726697066E-003  3.895461931984670E-003  3.944460811124526E-003  3.994076020291188E-003 
 4.044315311962031E-003  4.095186536128588E-003  4.146697641523141E-003  4.198856676860704E-003 
 4.251671792096665E-003  4.305151239700236E-003  4.359303375943905E-003  4.414136662209140E-003 
 4.469659666308476E-003  4.525881063824266E-003  4.582809639464254E-003  4.640454288434204E-003 
 4.698824017827804E-003  4.757927948034021E-003  4.817775314162198E-003  4.878375467485052E-003 
 4.939737876899829E-003  5.001872130407851E-003  5.064787936612637E-003  5.128495126236909E-003 
 5.193003653658660E-003  5.258323598466539E-003  5.324465167034826E-003  5.391438694118170E-003 
 5.459254644466438E-003  5.527923614459843E-003  5.597456333764650E-003  5.667863667009727E-003 
 5.739156615484132E-003  5.811346318856112E-003  5.884444056913688E-003  5.958461251327147E-003 
 6.033409467433714E-003  6.109300416044635E-003  6.186145955275031E-003  6.263958092396750E-003 
 6.342748985714523E-003  6.422530946465742E-003  6.503316440744087E-003  6.585118091447398E-003 
 6.667948680250026E-003  6.751821149599982E-003  6.836748604741258E-003  6.922744315761497E-003 
 7.009821719665505E-003  7.097994422474807E-003  7.187276201353593E-003  7.277681006761475E-003 
 7.369222964633221E-003  7.461916378585991E-003  7.555775732154303E-003  7.650815691053101E-003 
 7.747051105469339E-003  7.844497012382306E-003  7.943168637913209E-003  8.043081399704288E-003 
 8.144250909327839E-003  8.246692974725588E-003  8.350423602678667E-003  8.455459001308731E-003 
 8.561815582610514E-003  8.669509965016222E-003  8.778558975992229E-003  8.888979654668351E-003 
 9.000789254500282E-003  9.114005245965477E-003  9.228645319292936E-003  9.344727387227365E-003 
 9.462269587828046E-003  9.581290287302960E-003  9.701808082878554E-003  9.823841805705570E-003 
 9.947410523801496E-003  1.007253354502993E-002  1.019923042011751E-002  1.032752094570872E-002 
 1.045742516745920E-002  1.058896338316789E-002  1.072215614594863E-002  1.085702426744156E-002 
 1.099358882106507E-002  1.113187114530848E-002  1.127189284706633E-002  1.141367580501438E-002 
 1.155724217302827E-002  1.170261438364508E-002  1.184981515156849E-002  1.199886747721797E-002 
 1.214979465032265E-002  1.230262025356040E-002  1.245736816624263E-002  1.261406256804555E-002 
 1.277272794278824E-002  1.293338908225831E-002  1.309607109008567E-002  1.326079938566502E-002 
 1.342759970812767E-002  1.359649812036339E-002  1.376752101309271E-002  1.394069510899057E-002 
 1.411604746686177E-002  1.429360548586897E-002  1.447339690981392E-002  1.465544983147239E-002 
 1.483979269698376E-002  1.502645431029584E-002  1.521546383766544E-002  1.540685081221579E-002 
 1.560064513855103E-002  1.579687709742893E-002  1.599557735049230E-002  1.619677694505993E-002 
 1.640050731897783E-002  1.660680030553142E-002  1.681568813841954E-002  1.702720345679107E-002 
 1.724137931034483E-002  1.745824916449370E-002  1.767784690559361E-002  1.790020684623837E-002 
 1.812536373062112E-002  1.835335273996309E-002  1.858420949801089E-002  1.881797007660262E-002 
 1.905467100130428E-002  1.929434925711692E-002  1.953704229425563E-002  1.978278803400125E-002 
 2.003162487462558E-002  2.028359169739122E-002  2.053872787262688E-002  2.079707326587898E-002 
 2.105866824414086E-002  2.132355368216009E-002  2.159177096882526E-002  2.186336201363311E-002 
 2.213836925323692E-002  2.241683565807744E-002  2.269880473909693E-002  2.298432055453799E-002 
 2.327342771682766E-002  2.356617139954821E-002  2.386259734449572E-002  2.416275186882713E-002 
 2.446668187229755E-002  2.477443484458837E-002  2.508605887272761E-002  2.540160264860372E-002 
 2.572111547657363E-002  2.604464728116678E-002  2.637224861488586E-002  2.670397066610574E-002 
 2.703986526707188E-002  2.737998490199903E-002  2.772438271527214E-002  2.807311251975019E-002 
 2.842622880517462E-002  2.878378674668350E-002  2.914584221343262E-002  2.951245177732527E-002 
 2.988367272185166E-002  3.025956305103963E-002  3.064018149851791E-002  3.102558753669326E-002 
 3.141584138604327E-002  3.181100402452588E-002  3.221113719710728E-002  3.261630342540983E-002 
 3.302656601748098E-002  3.344198907768543E-002  3.386263751672153E-002  3.428857706176365E-002 
 3.471987426673236E-002  3.515659652269337E-002  3.559881206838772E-002  3.604659000089409E-002 
 3.650000028642543E-002  3.695911377126137E-002  3.742400219281798E-002  3.789473819085695E-002 
 3.837139531883568E-002  3.885404805540014E-002  3.934277181602248E-002  3.983764296478456E-002 
 4.033873882631021E-002  4.084613769784727E-002  4.135991886150169E-002  4.188016259662566E-002 
 4.240695019236122E-002  4.294036396034193E-002  4.348048724755431E-002  4.402740444936080E-002 
 4.458120102268701E-002  4.514196349937417E-002  4.570977949970013E-002  4.628473774607021E-002 
 4.686692807688009E-002  4.745644146055357E-002  4.805337000975606E-002  4.865780699578792E-002 
 4.926984686315803E-002  4.988958524434071E-002  5.051711897471905E-002  5.115254610771498E-002 
 5.179596593011090E-002  5.244747897756320E-002  5.310718705031088E-002  5.377519322908268E-002 
 5.445160189120291E-002  5.513651872690128E-002  5.583005075582695E-002  5.653230634377023E-002 
 5.724339521959571E-002  5.796342849238673E-002  5.869251866880720E-002  5.943077967068064E-002 
 6.017832685279037E-002  6.093527702090471E-002  6.170174845002725E-002  6.247786090287829E-002 
 6.326373564860770E-002  6.405949548174317E-002  6.486526474137784E-002  6.568116933059763E-002 
 6.650733673615471E-002  6.734389604838716E-002  6.819097798138926E-002  6.904871489343671E-002 
 6.991724080766683E-002  7.079669143302088E-002  7.168720418544847E-002  7.258891820937861E-002 
 7.350197439946245E-002  7.442651542258698E-002  7.536268574016822E-002  7.631063163072306E-002 
 7.727050121272525E-002  7.824244446775012E-002  7.922661326390845E-002  8.022316137957705E-002 
 8.123224452742663E-002  8.225402037875176E-002  8.328864858810833E-002  8.433629081825873E-002 
 8.539711076543298E-002  8.647127418490626E-002  8.755894891689796E-002  8.866030491279812E-002 
 8.977551426172156E-002  9.090475121739811E-002  9.204819222539964E-002  9.320601595070978E-002 
 9.437840330564147E-002  9.556553747810387E-002  9.676760396022681E-002  9.798479057734392E-002 
 9.921728751734019E-002  1.004652873603703E-001  1.017289851089486E-001  1.030085782184193E-001 
 1.043042666278095E-001  1.056162527910687E-001  1.069447417087047E-001  1.082899409598132E-001 
 1.096520607345143E-001  1.110313138667942E-001  1.124279158677606E-001  1.138420849593178E-001 
 1.152740421082633E-001  1.167240110608151E-001  1.181922183775721E-001  1.196788934689144E-001 
 1.211842686308500E-001  1.227085790813103E-001  1.242520629969046E-001  1.258149615501351E-001 
 1.273975189470802E-001  1.289999824655532E-001  1.306226024937388E-001  1.322656325693177E-001 
 1.339293294190824E-001  1.356139529990499E-001  1.373197665350824E-001  1.390470365640151E-001 
 1.407960329753042E-001  1.425670290531978E-001  1.443603015194356E-001  1.461761305764893E-001 
 1.480147999513430E-001  1.498765969398276E-001  1.517618124515106E-001  1.536707410551506E-001 
 1.556036810247264E-001  1.575609343860401E-001  1.595428069639119E-001  1.615496084299644E-001 
 1.635816523510091E-001  1.656392562380433E-001  1.677227415958601E-001  1.698324339732859E-001 
 1.719686630140470E-001  1.741317625082768E-001  1.763220704446726E-001  1.785399290633051E-001 
 1.807856849090961E-001  1.830596888859657E-001  1.853622963116613E-001  1.876938669732784E-001 
 1.900547651834759E-001  1.924453598374028E-001  1.948660244703377E-001  1.973171373160538E-001 
 1.997990813659207E-001  2.023122444287451E-001  2.048570191913689E-001  2.074338032800265E-001 
 2.100429993224737E-001  2.126850150109011E-001  2.153602631656347E-001  2.180691617996418E-001 
 2.208121341838455E-001  2.235896089132609E-001  2.264020199739660E-001  2.292498068109101E-001 
 2.321334143965812E-001  2.350532933005304E-001  2.380098997597775E-001  2.410036957500974E-001 
 2.440351490582036E-001  2.471047333548440E-001  2.502129282688090E-001  2.533602194618783E-001 
 2.565470987047043E-001  2.597740639536516E-001  2.630416194286065E-001  2.663502756917591E-001 
 2.697005497273823E-001  2.730929650226109E-001  2.765280516492358E-001  2.800063463465320E-001 
 2.835283926051217E-001  2.870947407518991E-001  2.907059480360181E-001  2.943625787159631E-001 
 2.980652041477184E-001  3.018144028740395E-001  3.056107607148559E-001  3.094548708588044E-001 
 3.133473339559150E-001  3.172887582114667E-001  3.212797594810175E-001  3.253209613666359E-001 
 3.294129953143391E-001  3.335565007127555E-001  3.377521249930348E-001  3.420005237300057E-001 
 3.463023607446150E-001  3.506583082076488E-001  3.550690467447593E-001  3.595352655428178E-001 
 3.640576624575970E-001  3.686369441228163E-001  3.732738260605530E-001  3.779690327930426E-001 
 3.827232979558908E-001  3.875373644127004E-001  3.924119843711505E-001  3.973479195005276E-001 
 4.023459410507366E-001  4.074068299728146E-001  4.125313770409509E-001  4.177203829760514E-001 
 4.229746585708513E-001  4.282950248166008E-001  4.336823130313517E-001  4.391373649898465E-001 
 4.446610330550528E-001  4.502541803113447E-001  4.559176806993587E-001  4.616524191525544E-001 
 4.674592917354812E-001  4.733392057837948E-001  4.792930800460292E-001  4.853218448271492E-001 
 4.914264421339193E-001  4.976078258220868E-001  5.038669617454300E-001  5.102048279066721E-001 
 5.166224146102936E-001  5.231207246172752E-001  5.297007733017748E-001  5.363635888097873E-001 
 5.431102122197925E-001  5.499416977054224E-001  5.568591127001848E-001  5.638635380642444E-001 
 5.709560682533157E-001  5.781378114896718E-001  5.854098899353026E-001  5.927734398672626E-001 
 6.002296118552077E-001  6.077795709411817E-001  6.154244968216536E-001  6.231655840318437E-001 
 6.310040421323799E-001  6.389410958982861E-001  6.469779855103621E-001  6.551159667489621E-001 
 6.633563111902092E-001  6.717003064046900E-001  6.801492561586302E-001  6.887044806176196E-001 
 6.973673165528868E-001  7.061391175501690E-001  7.150212542212210E-001  7.240151144179656E-001 
 7.331221034493584E-001  7.423436443009649E-001  7.516811778573019E-001  7.611361631269877E-001 
 7.707100774707044E-001  7.804044168320476E-001  7.902206959712675E-001  8.001604487019478E-001 
 8.102252281306784E-001  8.204166068997190E-001  8.307361774327382E-001  8.411855521836287E-001 
 8.517663638884515E-001  8.624802658205657E-001  8.733289320489426E-001  8.843140576997535E-001 
 8.954373592212326E-001  9.067005746518698E-001  9.181054638919948E-001  9.296538089787512E-001 
 9.413474143645558E-001  9.531881071990429E-001  9.651777376145544E-001  9.773181790152392E-001 
 9.896113283697627E-001  1.002059106507724E+000  1.014663458419784E+000  1.027426353561569E+000 
 1.040349786161415E+000  1.053435775531955E+000  1.066686366385653E+000  1.080103629154292E+000 
 1.093689660312472E+000  1.107446582705206E+000  1.121376545879604E+000  1.135481726420754E+000 
 1.149764328291814E+000  1.164226583178382E+000  1.178870750837211E+000  1.193699119449287E+000 
 1.208714005977377E+000  1.223917756528051E+000  1.239312746718260E+000  1.254901382046547E+000 
 1.270686098268894E+000  1.286669361779326E+000  1.302853669995288E+000  1.319241551747860E+000 
 1.335835567676913E+000  1.352638310631192E+000  1.369652406073471E+000  1.386880512490781E+000 
 1.404325321809796E+000  1.421989559817467E+000  1.439875986586919E+000  1.457987396908724E+000 
 1.476326620727598E+000  1.494896523584567E+000  1.513700007064740E+000  1.532740009250661E+000 
 1.552019505181411E+000  1.571541507317456E+000  1.591309066011343E+000  1.611325269984341E+000 
 1.631593246809037E+000  1.652116163398050E+000  1.672897226498852E+000  1.693939683194829E+000 
 1.715246821412654E+000  1.736821970436019E+000  1.758668501425857E+000  1.780789827947084E+000 
 1.803189406501969E+000  1.825870737070242E+000  1.848837363655941E+000  1.872092874841200E+000 
 1.895640904346959E+000  1.919485131600730E+000  1.943629282311540E+000  1.968077129052052E+000 
 1.992832491848063E+000  2.017899238775378E+000  2.043281286564195E+000  2.068982601211130E+000 
 2.095007198598879E+000  2.121359145123733E+000  2.148042558330956E+000  2.175061607558141E+000 
 2.202420514586708E+000  2.230123554301534E+000  2.258175055358941E+000  2.286579400863046E+000 
 2.315341029050613E+000  2.344464433984571E+000  2.373954166256185E+000  2.403814833696123E+000 
 2.434051102094431E+000  2.464667695929552E+000  2.495669399106571E+000  2.527061055704675E+000 
 2.558847570734079E+000  2.591033910902431E+000  2.623625105390856E+000  2.656626246639809E+000 
 2.690042491144743E+000  2.723879060261853E+000  2.758141241023908E+000  2.792834386966351E+000 
 2.827963918963827E+000  2.863535326077174E+000  2.899554166411128E+000  2.936026067982779E+000 
 2.972956729600937E+000  3.010351921756628E+000  3.048217487524697E+000  3.086559343476839E+000 
 3.125383480606058E+000  3.164695965262758E+000  3.204502940102661E+000  3.244810625046560E+000 
 3.285625318252241E+000  3.326953397098562E+000  3.368801319181913E+000  3.411175623325271E+000 
 3.454082930599859E+000  3.497529945359739E+000  3.541523456289368E+000  3.586070337464321E+000 
 3.631177549425427E+000  3.676852140266311E+000  3.723101246734726E+000  3.769932095347658E+000 
 3.817352003520468E+000  3.865368380710298E+000  3.913988729573760E+000  3.963220647139290E+000 
 4.013071825994177E+000  4.063550055486528E+000  4.114663222942411E+000  4.166419314898220E+000 
 4.218826418348628E+000  4.271892722010178E+000  4.325626517600769E+000  4.380036201135298E+000 
 4.435130274237499E+000  4.490917345468393E+000  4.547406131671367E+000  4.604605459334175E+000 
 4.662524265968155E+000  4.721171601504665E+000  4.780556629709206E+000  4.840688629613267E+000 
 4.901576996964154E+000  4.963231245693161E+000  5.025661009402072E+000  5.088876042868488E+000 
 5.152886223570010E+000  5.217701553227584E+000  5.283332159368355E+000  5.349788296908041E+000 
 5.417080349753348E+000  5.485218832424449E+000  5.554214391697871E+000  5.624077808270143E+000 
 5.694819998442222E+000  5.766452015825259E+000  5.838985053067717E+000  5.912430443604213E+000 
 5.986799663426467E+000  6.062104332876358E+000  6.138356218461708E+000  6.215567234694788E+000 
 6.293749445953947E+000  6.372915068368780E+000  6.453076471728830E+000  6.534246181416475E+000 
 6.616436880364004E+000  6.699661411035324E+000  6.783932777432698E+000  6.869264147128550E+000 
 6.955668853323020E+000  7.043160396927250E+000  7.131752448672910E+000  7.221458851248350E+000 
 7.312293621461458E+000  7.404270952429895E+000  7.497405215798770E+000  7.591710963986189E+000 
 7.687202932457200E+000  7.783896042026130E+000  7.881805401188085E+000  7.980946308479647E+000 
 8.081334254869258E+000  8.182984926177809E+000  8.285914205529473E+000  8.390138175833572E+000 
 8.495673122297530E+000  8.602535534971414E+000  8.710742111324647E+000  8.820309758854901E+000 
 8.931255597730035E+000  9.043596963463111E+000  9.157351409621054E+000  9.272536710567541E+000 
 9.389170864240162E+000  9.507272094962737E+000  9.626858856292863E+000  9.747949833905261E+000 
 9.870563948511585E+000  9.994720358816663E+000  1.012043846451222E+001  1.024773790930807E+001 
 1.037663858400142E+001  1.050716062958497E+001  1.063932444039386E+001  1.077315066729243E+001 
 1.090866022090093E+001  1.104587427486277E+001  1.118481426915309E+001  1.132550191342862E+001 
 1.146795919042003E+001  1.161220835936671E+001  1.175827195949475E+001  1.190617281353887E+001 
 1.205593403130838E+001  1.220757901329826E+001  1.236113145434551E+001  1.251661534733140E+001 
 1.267405498693059E+001  1.283347497340702E+001  1.299490021645795E+001  1.315835593910606E+001 
 1.332386768164052E+001  1.349146130560787E+001  1.366116299785280E+001  1.383299927460998E+001 