<UPF version="2.0.1">
  <PP_INFO>
    Generated using "atomic" code by A. Dal Corso  v.5.1.2
    Author: ADC
    Generation date: 30Jul2016
    Pseudopotential type: PAW
    Element: Dy
    Functional:  SLA  PW   PBX  PBC

    Suggested minimum cutoff for wavefunctions: 125. Ry
    Suggested minimum cutoff for charge density: 499. Ry
    The Pseudo was generated with a Scalar-Relativistic Calculation
    Local Potential by smoothing AE potential with Bessel fncs, cutoff radius:   1.7000
    Pseudopotential contains additional information for GIPAW reconstruction.

    Valence configuration: 
    nl pn  l   occ       Rcut    Rcut US       E pseu
    5S  1  0  2.00      1.300      1.600    -3.595523
    6S  2  0  2.00      1.300      1.600    -0.275366
    5P  2  1  6.00      1.400      1.700    -1.863203
    4D  3  2 10.00      1.000      1.100   -11.246373
    5D  4  2  0.00      1.000      1.100    -0.086090
    4F  4  3 10.00      1.100      1.300    -0.228583
    Generation configuration:
    5S  1  0  2.00      1.300      1.600    -3.595394
    6S  2  0  2.00      1.300      1.600    -0.275324
    5P  2  1  6.00      1.400      1.700    -1.863083
    6P  3  1  0.00      1.400      1.700     0.300000
    4D  3  2 10.00      1.000      1.100   -11.246230
    5D  4  2  0.00      1.000      1.100    -0.086034
    4F  4  3 10.00      1.100      1.300    -0.228440
    4F  4  3  0.00      1.100      1.300     1.000000

    Pseudization used: troullier-martins
<PP_INPUTFILE>
 &input
   title='Dy',
   zed=66.0,
   rel=1,
   config='[Xe] 4f10.0 5d0.0 6s2. 6p0.',
   iswitch=3,
   dft='PBE'
 /
 &inputp
   lpaw=.true.,
   pseudotype=3,
   file_pseudopw='Dy.pbe-spdfn-kjpaw_psl.1.0.0.UPF',
   author='ADC',
   lloc=-1,
   rcloc=1.7,
   which_augfun='PSQ',
   rmatch_augfun_nc=.true.,
   nlcc=.true.,
   new_core_ps=.true.,
   rcore=1.2,
   tm=.true.
 /
8
5S  1  0  2.00  0.00  1.30  1.60  0.0
6S  2  0  2.00  0.00  1.30  1.60  0.0
5P  2  1  6.00  0.00  1.40  1.70  0.0
6P  3  1  0.00  0.30  1.40  1.70  0.0
4D  3  2 10.00  0.00  1.00  1.10  0.0
5D  4  2  0.00  0.00  1.00  1.10  0.0
4F  4  3 10.00  0.00  1.10  1.30  0.0
4F  4  3  0.00  1.00  1.10  1.30  0.0
</PP_INPUTFILE>
  </PP_INFO>
  <!--                               -->
  <!-- END OF HUMAN READABLE SECTION -->
  <!--                               -->
  <PP_HEADER generated='Generated using "atomic" code by A. Dal Corso  v.5.1.2'
             author="ADC"
             date="30Jul2016"
             comment=""
             element="Dy"
             pseudo_type="PAW"
             relativistic="scalar"
             is_ultrasoft="T"
             is_paw="T"
             is_coulomb="F"
             has_so="F"
             has_wfc="T"
             has_gipaw="T"
             paw_as_gipaw="T"
             core_correction="T"
             functional=" SLA  PW   PBX  PBC"
             z_valence="3.000000000000000E+001"
             total_psenergy="-1.369065362962079E+003"
             wfc_cutoff="1.248471551570347E+002"
             rho_cutoff="4.993886206281389E+002"
             l_max="3"
             l_max_rho="6"
             l_local="-1"
             mesh_size="1265"
             number_of_wfc="6"
             number_of_proj="8"/>
  <PP_MESH dx="1.250000000000000E-002" mesh="1265" xmin="-7.000000000000000E+000" rmax="1.000000000000000E+002"
zmesh="6.600000000000000E+001">
    <PP_R type="real" size="1265" columns="4">
 1.381639341749267E-005  1.399018225256094E-005  1.416615708206943E-005  1.434434540244324E-005 
 1.452477505597000E-005  1.470747423515013E-005  1.489247148710210E-005  1.507979571802290E-005 
 1.526947619770470E-005  1.546154256410840E-005  1.565602482799450E-005  1.585295337761240E-005 
 1.605235898344864E-005  1.625427280303480E-005  1.645872638581603E-005  1.666575167808058E-005 
 1.687538102795156E-005  1.708764719044140E-005  1.730258333256981E-005  1.752022303854633E-005 
 1.774060031501779E-005  1.796374959638201E-005  1.818970575016819E-005  1.841850408248507E-005 
 1.865018034353759E-005  1.888477073321287E-005  1.912231190673658E-005  1.936284098040037E-005 
 1.960639553736133E-005  1.985301363351455E-005  2.010273380343927E-005  2.035559506642010E-005 
 2.061163693254385E-005  2.087089940887299E-005  2.113342300569695E-005  2.139924874286184E-005 
 2.166841815617992E-005  2.194097330391963E-005  2.221695677337732E-005  2.249641168753162E-005 
 2.277938171178140E-005  2.306591106076866E-005  2.335604450528713E-005  2.364982737927776E-005 
 2.394730558691238E-005  2.424852560976613E-005  2.455353451408040E-005  2.486237995811706E-005 
 2.517511019960506E-005  2.549177410328093E-005  2.581242114852385E-005  2.613710143708701E-005 
 2.646586570092606E-005  2.679876531012607E-005  2.713585228092833E-005  2.747717928385781E-005 
 2.782279965195314E-005  2.817276738910002E-005  2.852713717846936E-005  2.888596439106176E-005 
 2.924930509435923E-005  2.961721606108586E-005  2.998975477807874E-005  3.036697945527029E-005 
 3.074894903478385E-005  3.113572320014332E-005  3.152736238559893E-005  3.192392778557021E-005 
 3.232548136420770E-005  3.273208586507507E-005  3.314380482095281E-005  3.356070256376541E-005 
 3.398284423463338E-005  3.441029579405162E-005  3.484312403219600E-005  3.528139657935930E-005 
 3.572518191651868E-005  3.617454938603596E-005  3.662956920249248E-005  3.709031246366035E-005 
 3.755685116161149E-005  3.802925819396665E-005  3.850760737528573E-005  3.899197344860151E-005 
 3.948243209709846E-005  3.997905995593821E-005  4.048193462423410E-005  4.099113467717616E-005 
 4.150673967830861E-005  4.202883019196195E-005  4.255748779584110E-005  4.309279509377223E-005 
 4.363483572860975E-005  4.418369439530557E-005  4.473945685414313E-005  4.530220994413728E-005 
 4.587204159660326E-005  4.644904084889611E-005  4.703329785832286E-005  4.762490391623000E-005 
 4.822395146226768E-005  4.883053409883373E-005  4.944474660569922E-005  5.006668495481791E-005 
 5.069644632532231E-005  5.133412911870775E-005  5.197983297420810E-005  5.263365878436445E-005 
 5.329570871078983E-005  5.396608620013227E-005  5.464489600023834E-005  5.533224417652036E-005 
 5.602823812852927E-005  5.673298660673607E-005  5.744659972952436E-005  5.816918900039642E-005 
 5.890086732539591E-005  5.964174903074974E-005  6.039194988073167E-005  6.115158709575088E-005 
 6.192077937066767E-005  6.269964689333995E-005  6.348831136340272E-005  6.428689601128394E-005 
 6.509552561745970E-005  6.591432653195105E-005  6.674342669406677E-005  6.758295565239396E-005 
 6.843304458504040E-005  6.929382632013141E-005  7.016543535656433E-005  7.104800788502441E-005 
 7.194168180926482E-005  7.284659676765432E-005  7.376289415499641E-005  7.469071714462200E-005 
 7.563021071076086E-005  7.658152165119416E-005  7.754479861019169E-005  7.852019210173826E-005 
 7.950785453305128E-005  8.050794022839508E-005  8.152060545319425E-005  8.254600843845038E-005 
 8.358430940546623E-005  8.463567059088030E-005  8.570025627201679E-005  8.677823279255432E-005 
 8.786976858851729E-005  8.897503421459473E-005  9.009420237078931E-005  9.122744792940240E-005 
 9.237494796235815E-005  9.353688176887122E-005  9.471343090346304E-005  9.590477920432950E-005 
 9.711111282206641E-005  9.833262024875586E-005  9.956949234741838E-005  1.008219223818360E-004 
 1.020901060467495E-004  1.033742414984368E-004  1.046745293856747E-004  1.059911728810911E-004 
 1.073243777129110E-004  1.086743521971015E-004  1.100413072699226E-004  1.114254565208854E-004 
 1.128270162261263E-004  1.142462053822012E-004  1.156832457403025E-004  1.171383618409102E-004 
 1.186117810488753E-004  1.201037335889469E-004  1.216144525817449E-004  1.231441740801850E-004 
 1.246931371063641E-004  1.262615836889062E-004  1.278497589007808E-004  1.294579108975962E-004 
 1.310862909563732E-004  1.327351535148095E-004  1.344047562110342E-004  1.360953599238654E-004 
 1.378072288135731E-004  1.395406303631536E-004  1.412958354201262E-004  1.430731182388517E-004 
 1.448727565233864E-004  1.466950314708741E-004  1.485402278154822E-004  1.504086338728941E-004 
 1.523005415853574E-004  1.542162465673010E-004  1.561560481515265E-004  1.581202494359773E-004 
 1.601091573311008E-004  1.621230826078019E-004  1.641623399460023E-004  1.662272479838104E-004 
 1.683181293673077E-004  1.704353108009646E-004  1.725791230986875E-004  1.747499012355094E-004 
 1.769479843999311E-004  1.791737160469185E-004  1.814274439515700E-004  1.837095202634560E-004 
 1.860203015616430E-004  1.883601489104105E-004  1.907294279156666E-004  1.931285087820768E-004 
 1.955577663709071E-004  1.980175802585982E-004  2.005083347960749E-004  2.030304191688004E-004 
 2.055842274575899E-004  2.081701587001840E-004  2.107886169536003E-004  2.134400113572687E-004 
 2.161247561969584E-004  2.188432709695133E-004  2.215959804483973E-004  2.243833147500667E-004 
 2.272057094011775E-004  2.300636054066355E-004  2.329574493185066E-004  2.358876933057892E-004 
 2.388547952250680E-004  2.418592186920549E-004  2.449014331540284E-004  2.479819139631883E-004 
 2.511011424509281E-004  2.542596060030448E-004  2.574577981358952E-004  2.606962185735058E-004 
 2.639753733256593E-004  2.672957747669570E-004  2.706579417168793E-004  2.740623995208532E-004 
 2.775096801323360E-004  2.810003221959376E-004  2.845348711315820E-004  2.881138792197311E-004 
 2.917379056876808E-004  2.954075167969393E-004  2.991232859317088E-004  3.028857936884762E-004 
 3.066956279667332E-004  3.105533840608373E-004  3.144596647530264E-004  3.184150804076065E-004 
 3.224202490663209E-004  3.264757965449208E-004  3.305823565309511E-004  3.347405706827643E-004 
 3.389510887297819E-004  3.432145685740147E-004  3.475316763928626E-004  3.519030867432057E-004 
 3.563294826668046E-004  3.608115557970285E-004  3.653500064669223E-004  3.699455438186369E-004 
 3.745988859142333E-004  3.793107598478810E-004  3.840819018594689E-004  3.889130574496429E-004 
 3.938049814962931E-004  3.987584383725048E-004  4.037742020659922E-004  4.088530563000376E-004 
 4.139957946559480E-004  4.192032206970542E-004  4.244761480942700E-004  4.298154007532288E-004 
 4.352218129430217E-004  4.406962294265526E-004  4.462395055925347E-004  4.518525075891471E-004 
 4.575361124593712E-004  4.632912082780318E-004  4.691186942905590E-004  4.750194810534983E-004 
 4.809944905767871E-004  4.870446564678192E-004  4.931709240773247E-004  4.993742506470813E-004 
 5.056556054594861E-004  5.120159699890085E-004  5.184563380555459E-004  5.249777159797125E-004 
 5.315811227400764E-004  5.382675901323782E-004  5.450381629307525E-004  5.518938990509732E-004 
 5.588358697157578E-004  5.658651596221458E-004  5.729828671109861E-004  5.801901043385554E-004 
 5.874879974503335E-004  5.948776867569669E-004  6.023603269124442E-004  6.099370870945129E-004 
 6.176091511873671E-004  6.253777179666295E-004  6.332440012866654E-004  6.412092302702472E-004 
 6.492746495006089E-004  6.574415192159148E-004  6.657111155061730E-004  6.740847305126292E-004 
 6.825636726296640E-004  6.911492667092334E-004  6.998428542678806E-004  7.086457936963482E-004 
 7.175594604718322E-004  7.265852473729011E-004  7.357245646971208E-004  7.449788404814180E-004 
 7.543495207252113E-004  7.638380696163542E-004  7.734459697599154E-004  7.831747224098396E-004 
 7.930258477035209E-004  8.030008848993304E-004  8.131013926171233E-004  8.233289490817802E-004 
 8.336851523698069E-004  8.441716206590363E-004  8.547899924814750E-004  8.655419269793226E-004 
 8.764291041642194E-004  8.874532251797509E-004  8.986160125672533E-004  9.099192105349688E-004 
 9.213645852305753E-004  9.329539250171551E-004  9.446890407526281E-004  9.565717660727027E-004 
 9.686039576773874E-004  9.807874956210994E-004  9.931242836064298E-004  1.005616249281601E-003 
 1.018265344541663E-003  1.031073545833488E-003  1.044042854464585E-003  1.057175296915813E-003 
 1.070472925158025E-003  1.083937816972685E-003  1.097572076276537E-003  1.111377833450335E-003 
 1.125357245671726E-003  1.139512497252310E-003  1.153845799978944E-003  1.168359393459344E-003 
 1.183055545472018E-003  1.197936552320616E-003  1.213004739192736E-003  1.228262460523231E-003 
 1.243712100362103E-003  1.259356072747009E-003  1.275196822080461E-003  1.291236823511771E-003 
 1.307478583323795E-003  1.323924639324551E-003  1.340577561243747E-003  1.357439951134314E-003 
 1.374514443778978E-003  1.391803707101953E-003  1.409310442585810E-003  1.427037385693586E-003 
 1.444987306296207E-003  1.463163009105286E-003  1.481567334111364E-003  1.500203157027671E-003 
 1.519073389739451E-003  1.538180980758956E-003  1.557528915686158E-003  1.577120217675252E-003 
 1.596957947907035E-003  1.617045206067215E-003  1.637385130830747E-003  1.657980900352257E-003 
 1.678835732762636E-003  1.699952886671875E-003  1.721335661678239E-003  1.742987398883825E-003 
 1.764911481416621E-003  1.787111334959130E-003  1.809590428283631E-003  1.832352273794192E-003 
 1.855400428075484E-003  1.878738492448504E-003  1.902370113533293E-003  1.926298983818721E-003 
 1.950528842239458E-003  1.975063474760177E-003  1.999906714967126E-003  2.025062444667129E-003 
 2.050534594494132E-003  2.076327144523371E-003  2.102444124893262E-003  2.128889616435124E-003 
 2.155667751310813E-003  2.182782713658383E-003  2.210238740245870E-003  2.238040121133286E-003 
 2.266191200342956E-003  2.294696376538283E-003  2.323560103711037E-003  2.352786891877318E-003 
 2.382381307782237E-003  2.412347975613490E-003  2.442691577723892E-003  2.473416855363006E-003 
 2.504528609417978E-003  2.536031701163675E-003  2.567931053022276E-003  2.600231649332407E-003 
 2.632938537127957E-003  2.666056826926689E-003  2.699591693528765E-003  2.733548376825316E-003 
 2.767932182617193E-003  2.802748483444004E-003  2.838002719423592E-003  2.873700399102050E-003 
 2.909847100314458E-003  2.946448471056419E-003  2.983510230366576E-003  3.021038169220230E-003 
 3.059038151434174E-003  3.097516114582941E-003  3.136478070926557E-003  3.175930108349967E-003 
 3.215878391314289E-003  3.256329161820010E-003  3.297288740382318E-003  3.338763527018697E-003 
 3.380760002248937E-003  3.423284728107741E-003  3.466344349170038E-003  3.509945593589226E-003 
 3.554095274148452E-003  3.598800289325123E-003  3.644067624368821E-003  3.689904352392739E-003 
 3.736317635478888E-003  3.783314725797177E-003  3.830902966738583E-003  3.879089794062577E-003 
 3.927882737058964E-003  3.977289419724354E-003  4.027317561953436E-003  4.077974980745210E-003 
 4.129269591424434E-003  4.181209408878382E-003  4.233802548809204E-003  4.287057229002016E-003 
 4.340981770608941E-003  4.395584599449324E-003  4.450874247326256E-003  4.506859353359708E-003 
 4.563548665336399E-003  4.620951041076656E-003  4.679075449818483E-003  4.737930973618998E-003 
 4.797526808773536E-003  4.857872267252589E-003  4.918976778156814E-003  4.980849889190366E-003 
 5.043501268152722E-003  5.106940704449310E-003  5.171178110621120E-003  5.236223523893553E-003 
 5.302087107744780E-003  5.368779153493770E-003  5.436310081908360E-003  5.504690444833507E-003 
 5.573930926840036E-003  5.644042346894137E-003  5.715035660047834E-003  5.786921959150744E-003 
 5.859712476583357E-003  5.933418586012106E-003  6.008051804166560E-003  6.083623792638891E-003 
 6.160146359706051E-003  6.237631462174830E-003  6.316091207250127E-003  6.395537854426750E-003 
 6.475983817404952E-003  6.557441666030114E-003  6.639924128256812E-003  6.723444092137574E-003 
 6.808014607836692E-003  6.893648889669299E-003  6.980360318166153E-003  7.068162442164374E-003 
 7.157068980924465E-003  7.247093826274002E-003  7.338251044778222E-003  7.430554879937976E-003 
 7.524019754415301E-003  7.618660272286984E-003  7.714491221326504E-003  7.811527575314611E-003 
 7.909784496379036E-003  8.009277337363601E-003  8.110021644227125E-003  8.212033158472534E-003 
 8.315327819606463E-003  8.419921767629873E-003  8.525831345559941E-003  8.633073101983682E-003 
 8.741663793643739E-003  8.851620388056607E-003  8.962960066163870E-003  9.075700225016754E-003 
 9.189858480494445E-003  9.305452670056636E-003  9.422500855530612E-003  9.541021325933490E-003 
 9.661032600329906E-003  9.782553430725637E-003  9.905602804997688E-003  1.003019994986112E-002 
 1.015636433387333E-002  1.028411567047598E-002  1.041347392107534E-002  1.054445929816124E-002 
 1.067709226846536E-002  1.081139355615914E-002  1.094738414609201E-002  1.108508528707033E-002 
 1.122451849517755E-002  1.136570555713609E-002  1.150866853371165E-002  1.165342976316017E-002 
 1.180001186471826E-002  1.194843774213753E-002  1.209873058726329E-002  1.225091388365838E-002 
 1.240501141027246E-002  1.256104724515758E-002  1.271904576923042E-002  1.287903167008179E-002 
 1.304102994583422E-002  1.320506590904786E-002  1.337116519067569E-002  1.353935374406842E-002 
 1.370965784902969E-002  1.388210411592240E-002  1.405671948982657E-002  1.423353125474963E-002 
 1.441256703788961E-002  1.459385481395185E-002  1.477742290952020E-002  1.496330000748306E-002 
 1.515151515151515E-002  1.534209775061568E-002  1.553507758370347E-002  1.573048480427008E-002 
 1.592834994509128E-002  1.612870392299787E-002  1.633157804370654E-002  1.653700400671139E-002 
 1.674501391023709E-002  1.695564025625426E-002  1.716891595555797E-002  1.738487433291019E-002 
 1.760354913224672E-002  1.782497452194987E-002  1.804918510018726E-002  1.827621590031789E-002 
 1.850610239636621E-002  1.873888050856493E-002  1.897458660896765E-002  1.921325752713213E-002 
 1.945493055587487E-002  1.969964345709835E-002  1.994743446769124E-002  2.019834230550308E-002 
 2.045240617539400E-002  2.070966577536055E-002  2.097016130273866E-002  2.123393346048445E-002 
 2.150102346353421E-002  2.177147304524433E-002  2.204532446391214E-002  2.232262050937903E-002 
 2.260340450971622E-002  2.288772033799505E-002  2.317561241914212E-002  2.346712573688080E-002 
 2.376230584076014E-002  2.406119885327188E-002  2.436385147705733E-002  2.467031100220471E-002 
 2.498062531363831E-002  2.529484289860065E-002  2.561301285422866E-002  2.593518489522523E-002 
 2.626140936162722E-002  2.659173722667119E-002  2.692622010475816E-002  2.726491025951832E-002 
 2.760786061197743E-002  2.795512474882577E-002  2.830675693079125E-002  2.866281210111773E-002 
 2.902334589414995E-002  2.938841464402659E-002  2.975807539348255E-002  3.013238590276200E-002 
 3.051140465864359E-002  3.089519088357903E-002  3.128380454494678E-002  3.167730636442208E-002 
 3.207575782746477E-002  3.247922119292666E-002  3.288775950277944E-002  3.330143659196520E-002 
 3.372031709837075E-002  3.414446647292740E-002  3.457395098983794E-002  3.500883775693189E-002 
 3.544919472615139E-002  3.589509070416881E-002  3.634659536313785E-002  3.680377925158013E-002 
 3.726671380540834E-002  3.773547135908837E-002  3.821012515694167E-002  3.869074936458980E-002 
 3.917741908054313E-002  3.967021034793487E-002  4.016920016640315E-002  4.067446650412231E-002 
 4.118608830998553E-002  4.170414552594102E-002  4.222871909948260E-002  4.275989099629848E-002 
 4.329774421307827E-002  4.384236279048123E-002  4.439383182626826E-002  4.495223748859801E-002 
 4.551766702949139E-002  4.609020879846463E-002  4.666995225633380E-002  4.725698798919387E-002 
 4.785140772257226E-002  4.845330433576173E-002  4.906277187633278E-002  4.967990557482838E-002 
 5.030480185964471E-002  5.093755837209743E-002  5.157827398167906E-002  5.222704880150723E-002 
 5.288398420396730E-002  5.354918283655263E-002  5.422274863790273E-002  5.490478685404455E-002 
 5.559540405483707E-002  5.629470815062278E-002  5.700280840908961E-002  5.771981547234337E-002 
 5.844584137419656E-002  5.918099955767356E-002  5.992540489273602E-002  6.067917369423226E-002 
 6.144242374007085E-002  6.221527428962441E-002  6.299784610236379E-002  6.379026145672667E-002 
 6.459264416922458E-002  6.540511961378856E-002  6.622781474135996E-002  6.706085809972633E-002 
 6.790437985360703E-002  6.875851180499254E-002  6.962338741373773E-002  7.049914181841620E-002 
 7.138591185743552E-002  7.228383609041822E-002  7.319305481985278E-002  7.411371011301525E-002 
 7.504594582416838E-002  7.598990761703883E-002  7.694574298757699E-002  7.791360128700442E-002 
 7.889363374514925E-002  7.988599349407711E-002  8.089083559201787E-002  8.190831704759344E-002 
 8.293859684435159E-002  8.398183596560642E-002  8.503819741959326E-002  8.610784626493860E-002 
 8.719094963645047E-002  8.828767677123454E-002  8.939819903513664E-002  9.052268994952002E-002 
 9.166132521837803E-002  9.281428275578767E-002  9.398174271371018E-002  9.516388751013888E-002 
 9.636090185760347E-002  9.757297279203127E-002  9.880028970197140E-002  1.000430443581884E-001 
 1.013014309436253E-001  1.025756460837466E-001  1.038658888772603E-001  1.051723609272278E-001 
 1.064952663725652E-001  1.078348119199393E-001  1.091912068760676E-001  1.105646631804218E-001 
 1.119553954383432E-001  1.133636209545771E-001  1.147895597672250E-001  1.162334346821277E-001 
 1.176954713076784E-001  1.191758980900741E-001  1.206749463490118E-001  1.221928503138314E-001 
 1.237298471601159E-001  1.252861770467496E-001  1.268620831534434E-001  1.284578117187331E-001 
 1.300736120784530E-001  1.317097367046970E-001  1.333664412452669E-001  1.350439845636172E-001 
 1.367426287793050E-001  1.384626393089444E-001  1.402042849076801E-001  1.419678377111808E-001 
 1.437535732781595E-001  1.455617706334320E-001  1.473927123115134E-001  1.492466844007664E-001 
 1.511239765881019E-001  1.530248822042432E-001  1.549496982695608E-001  1.568987255404802E-001 
 1.588722685564783E-001  1.608706356876668E-001  1.628941391829751E-001  1.649430952189417E-001 
 1.670178239491152E-001  1.691186495540813E-001  1.712459002921150E-001  1.733999085504715E-001 
 1.755810108973243E-001  1.777895481343517E-001  1.800258653499908E-001  1.822903119733567E-001 
 1.845832418288405E-001  1.869050131913980E-001  1.892559888425275E-001  1.916365361269579E-001 
 1.940470270100461E-001  1.964878381358960E-001  1.989593508862126E-001  2.014619514398907E-001 
 2.039960308333592E-001  2.065619850216782E-001  2.091602149404105E-001  2.117911265682674E-001 
 2.144551309905425E-001  2.171526444633477E-001  2.198840884786504E-001  2.226498898301355E-001 
 2.254504806798917E-001  2.282862986259362E-001  2.311577867705936E-001  2.340653937897277E-001 
 2.370095740028511E-001  2.399907874441126E-001  2.430094999341769E-001  2.460661831530130E-001 
 2.491613147135918E-001  2.522953782365173E-001  2.554688634255917E-001  2.586822661443312E-001 
 2.619360884934495E-001  2.652308388893074E-001  2.685670321433582E-001  2.719451895425857E-001 
 2.753658389309556E-001  2.788295147918951E-001  2.823367583318033E-001  2.858881175646195E-001 
 2.894841473974495E-001  2.931254097172700E-001  2.968124734787276E-001  3.005459147930353E-001 
 3.043263170179950E-001  3.081542708491459E-001  3.120303744120612E-001  3.159552333558096E-001 
 3.199294609475852E-001  3.239536781685355E-001  3.280285138107890E-001  3.321546045757041E-001 
 3.363325951733586E-001  3.405631384232822E-001  3.448468953564656E-001  3.491845353186455E-001 
 3.535767360748897E-001  3.580241839155038E-001  3.625275737632599E-001  3.670876092819845E-001 
 3.717050029865057E-001  3.763804763539825E-001  3.811147599366424E-001  3.859085934759257E-001 
 3.907627260180767E-001  3.956779160311817E-001  4.006549315236788E-001  4.056945501643660E-001 
 4.107975594039077E-001  4.159647565978803E-001  4.211969491313590E-001  4.264949545450705E-001 
 4.318596006631412E-001  4.372917257224399E-001  4.427921785035597E-001  4.483618184634391E-001 
 4.540015158696519E-001  4.597121519363933E-001  4.654946189621657E-001  4.713498204692070E-001 
 4.772786713446662E-001  4.832820979835530E-001  4.893610384334958E-001  4.955164425413057E-001 
 5.017492721013986E-001  5.080605010060752E-001  5.144511153976902E-001  5.209221138227459E-001 
 5.274745073879098E-001  5.341093199180081E-001  5.408275881159986E-001  5.476303617249536E-001 
 5.545187036920914E-001  5.614936903348575E-001  5.685564115091061E-001  5.757079707793910E-001 
 5.829494855913960E-001  5.902820874465458E-001  5.977069220787963E-001  6.052251496336657E-001 
 6.128379448495066E-001  6.205464972410576E-001  6.283520112853154E-001  6.362557066097274E-001 
 6.442588181827694E-001  6.523625965069085E-001  6.605683078139926E-001  6.688772342631104E-001 
 6.772906741409220E-001  6.858099420645267E-001  6.944363691868715E-001  7.031713034047421E-001 
 7.120161095693841E-001  7.209721696997531E-001  7.300408831984669E-001  7.392236670704615E-001 
 7.485219561443968E-001  7.579372032968608E-001  7.674708796793738E-001  7.771244749482682E-001 
 7.868994974974468E-001  7.967974746940675E-001  8.068199531172074E-001  8.169684987995086E-001 
 8.272446974718823E-001  8.376501548112801E-001  8.481864966915781E-001  8.588553694376344E-001 
 8.696584400825188E-001  8.805973966279997E-001  8.916739483082948E-001  9.028898258571362E-001 
 9.142467817782129E-001  9.257465906189905E-001  9.373910492479982E-001  9.491819771355896E-001 
 9.611212166382325E-001  9.732106332863932E-001  9.854521160760153E-001  9.978475777636924E-001 
 1.010398955165533E+000  1.023108209459790E+000  1.035977326493306E+000  1.049008317091798E+000 
 1.062203217374059E+000  1.075564089070105E+000  1.089093019843319E+000  1.102792123616663E+000 
 1.116663540902967E+000  1.130709439139408E+000  1.144932013026162E+000  1.159333484869332E+000 
 1.173916104928197E+000  1.188682151766805E+000  1.203633932610020E+000  1.218773783704020E+000 
 1.234104070681336E+000  1.249627188930502E+000  1.265345563970322E+000  1.281261651828879E+000 
 1.297377939427283E+000  1.313696944968256E+000  1.330221218329620E+000  1.346953341462702E+000 
 1.363895928795785E+000  1.381051627642613E+000  1.398423118616029E+000  1.416013116046845E+000 
 1.433824368407942E+000  1.451859658743740E+000  1.470121805105052E+000  1.488613660989395E+000 
 1.507338115786878E+000  1.526298095231653E+000  1.545496561859086E+000  1.564936515468649E+000 
 1.584620993592640E+000  1.604553071970819E+000  1.624735865030978E+000  1.645172526375600E+000 
 1.665866249274600E+000  1.686820267164278E+000  1.708037854152566E+000  1.729522325530592E+000 
 1.751277038290722E+000  1.773305391651089E+000  1.795610827586717E+000  1.818196831367357E+000 
 1.841066932102045E+000  1.864224703290554E+000  1.887673763381749E+000  1.911417776338972E+000 
 1.935460452212561E+000  1.959805547719530E+000  1.984456866830585E+000  2.009418261364495E+000 
 2.034693631589932E+000  2.060286926834926E+000  2.086202146103920E+000  2.112443338702654E+000 
 2.139014604870864E+000  2.165920096422940E+000  2.193164017396684E+000  2.220750624710170E+000 
 2.248684228826918E+000  2.276969194429409E+000  2.305609941101055E+000  2.334610944016802E+000 
 2.363976734642350E+000  2.393711901442234E+000  2.423821090596768E+000  2.454309006728005E+000 
 2.485180413634879E+000  2.516440135037517E+000  2.548093055330992E+000  2.580144120348502E+000 
 2.612598338134156E+000  2.645460779725522E+000  2.678736579945946E+000  2.712430938206919E+000 
 2.746549119320475E+000  2.781096454321818E+000  2.816078341302338E+000  2.851500246253038E+000 
 2.887367703918636E+000  2.923686318662372E+000  2.960461765341681E+000  2.997699790194936E+000 
 3.035406211739270E+000  3.073586921679771E+000  3.112247885830051E+000  3.151395145044404E+000 
 3.191034816161739E+000  3.231173092961304E+000  3.271816247130517E+000  3.312970629244912E+000 
 3.354642669760412E+000  3.396838880018141E+000  3.439565853261790E+000  3.482830265667861E+000 
 3.526638877388823E+000  3.570998533609373E+000  3.615916165616059E+000  3.661398791880254E+000 
 3.707453519154854E+000  3.754087543584702E+000  3.801308151830979E+000  3.849122722209807E+000 
 3.897538725845075E+000  3.946563727835860E+000  3.996205388438474E+000  4.046471464263366E+000 
 4.097369809487167E+000  4.148908377079857E+000  4.201095220047485E+000  4.253938492690447E+000 
 4.307446451877590E+000  4.361627458336415E+000  4.416489977959396E+000  4.472042583126853E+000 
 4.528293954046372E+000  4.585252880109088E+000  4.642928261263100E+000  4.701329109404036E+000 
 4.760464549783245E+000  4.820343822433607E+000  4.880976283613281E+000  4.942371407267702E+000 
 5.004538786509832E+000  5.067488135119167E+000  5.131229289059508E+000  5.195772208015824E+000 
 5.261126976950532E+000  5.327303807679225E+000  5.394313040466350E+000  5.462165145640874E+000 
 5.530870725232256E+000  5.600440514627110E+000  5.670885384246548E+000  5.742216341244781E+000 
 5.814444531228973E+000  5.887581240000739E+000  5.961637895319643E+000  6.036626068688727E+000 
 6.112557477162653E+000  6.189443985178493E+000  6.267297606409527E+000  6.346130505642489E+000 
 6.425955000678251E+000  6.506783564256574E+000  6.588628826004979E+000  6.671503574412105E+000 
 6.755420758826023E+000  6.840393491477508E+000  6.926435049528924E+000  7.013558877148782E+000 
 7.101778587612379E+000  7.191107965428984E+000  7.281560968495596E+000  7.373151730277988E+000 
 7.465894562019042E+000  7.559803954974879E+000  7.654894582679234E+000  7.751181303236124E+000 
 7.848679161641545E+000  7.947403392134249E+000  8.047369420576077E+000  8.148592866862385E+000 
 8.251089547362568E+000  8.354875477391497E+000  8.459966873711910E+000  8.566380157068261E+000 
 8.674131954752603E+000  8.783239103202522E+000  8.893718650631952E+000  9.005587859694973E+000 
 9.118864210183064E+000  9.233565401756486E+000  9.349709356709752E+000  9.467314222772135E+000 
 9.586398375943244E+000  9.706980423364255E+000  9.829079206225439E+000  9.952713802709997E+000 
 1.007790353097518E+001  1.020466795217075E+001  1.033302687349539E+001  1.046300035129173E+001 
 1.059460869418009E+001  1.072787246623181E+001  1.086281249018242E+001  1.099944985068517E+001 
 1.113780589760566E+001  1.127790224935768E+001  1.141976079628123E+001  1.156340370406290E+001 
 1.170885341719924E+001  1.185613266250389E+001  1.200526445265852E+001  1.215627208980877E+001 