<UPF version="2.0.1">
  <PP_INFO>
    Generated using "atomic" code by A. Dal Corso  v.5.1.2
    Author: ADC
    Generation date: 30Jul2016
    Pseudopotential type: PAW
    Element: Eu
    Functional:  SLA  PW   PBX  PBC

    Suggested minimum cutoff for wavefunctions: 122. Ry
    Suggested minimum cutoff for charge density: 488. Ry
    The Pseudo was generated with a Scalar-Relativistic Calculation
    Local Potential by smoothing AE potential with Bessel fncs, cutoff radius:   1.7000
    Pseudopotential contains additional information for GIPAW reconstruction.

    Valence configuration: 
    nl pn  l   occ       Rcut    Rcut US       E pseu
    5S  1  0  2.00      1.300      1.600    -3.413679
    6S  2  0  2.00      1.300      1.600    -0.284361
    5P  2  1  6.00      1.400      1.900    -1.853623
    4D  3  2 10.00      1.050      1.300   -10.147420
    5D  4  2  0.50      1.050      1.300    -0.154768
    4F  4  3  6.50      1.100      1.300    -0.398358
    Generation configuration:
    5S  1  0  2.00      1.300      1.600    -3.413695
    6S  2  0  2.00      1.300      1.600    -0.284366
    5P  2  1  6.00      1.400      1.900    -1.853635
    6P  3  1  0.00      1.400      1.900     0.300000
    4D  3  2 10.00      1.050      1.300   -10.147486
    5D  4  2  0.50      1.050      1.300    -0.154783
    4F  4  3  6.50      1.100      1.300    -0.398403
    4F  4  3  0.00      1.100      1.300     1.000000

    Pseudization used: troullier-martins
<PP_INPUTFILE>
 &input
   title='Eu',
   zed=63.0,
   rel=1,
   config='[Xe] 4f6.5 5d0.5 6s2. 6p0.',
   iswitch=3,
   dft='PBE'
 /
 &inputp
   lpaw=.true.,
   pseudotype=3,
   file_pseudopw='Eu.pbe-spdfn-kjpaw_psl.1.0.0.UPF',
   author='ADC',
   lloc=-1,
   rcloc=1.7,
   which_augfun='PSQ',
   rmatch_augfun_nc=.true.,
   nlcc=.true.,
   new_core_ps=.true.,
   rcore=1.2,
   tm=.true.
 /
8
5S  1  0  2.00  0.00  1.30  1.60  0.0
6S  2  0  2.00  0.00  1.30  1.60  0.0
5P  2  1  6.00  0.00  1.40  1.90  0.0
6P  3  1  0.00  0.30  1.40  1.90  0.0
4D  3  2 10.00  0.00  1.05  1.30  0.0
5D  4  2  0.50  0.00  1.05  1.30  0.0
4F  4  3  6.50  0.00  1.10  1.30  0.0
4F  4  3  0.00  1.00  1.10  1.30  0.0
</PP_INPUTFILE>
  </PP_INFO>
  <!--                               -->
  <!-- END OF HUMAN READABLE SECTION -->
  <!--                               -->
  <PP_HEADER generated='Generated using "atomic" code by A. Dal Corso  v.5.1.2'
             author="ADC"
             date="30Jul2016"
             comment=""
             element="Eu"
             pseudo_type="PAW"
             relativistic="scalar"
             is_ultrasoft="T"
             is_paw="T"
             is_coulomb="F"
             has_so="F"
             has_wfc="T"
             has_gipaw="T"
             paw_as_gipaw="T"
             core_correction="T"
             functional=" SLA  PW   PBX  PBC"
             z_valence="2.700000000000000E+001"
             total_psenergy="-1.117865179106958E+003"
             wfc_cutoff="1.220836183218555E+002"
             rho_cutoff="4.883344732874222E+002"
             l_max="3"
             l_max_rho="6"
             l_local="-1"
             mesh_size="1261"
             number_of_wfc="6"
             number_of_proj="8"/>
  <PP_MESH dx="1.250000000000000E-002" mesh="1261" xmin="-7.000000000000000E+000" rmax="1.000000000000000E+002"
zmesh="6.300000000000000E+001">
    <PP_R type="real" size="1261" columns="4">
 1.447431691356375E-005  1.465638140744480E-005  1.484073599073940E-005  1.502740946922625E-005 
 1.521643101101619E-005  1.540783015110967E-005  1.560163679601173E-005  1.579788122840494E-005 
 1.599659411188112E-005  1.619780649573261E-005  1.640154981980376E-005  1.660785591940347E-005 
 1.681675703027953E-005  1.702828579365551E-005  1.724247526133108E-005  1.745935890084632E-005 
 1.767897060071116E-005  1.790134467570051E-005  1.812651587221599E-005  1.835451937371520E-005 
 1.858539080620912E-005  1.881916624382878E-005  1.905588221446192E-005  1.929557570546055E-005 
 1.953828416942033E-005  1.978404553003253E-005  2.003289818800975E-005  2.028488102708610E-005 
 2.054003342009282E-005  2.079839523511048E-005  2.106000684169828E-005  2.132490911720201E-005 
 2.159314345314117E-005  2.186475176167646E-005  2.213977648215871E-005  2.241826058776003E-005 
 2.270024759218848E-005  2.298578155648723E-005  2.327490709591909E-005  2.356766938693789E-005 
 2.386411417424718E-005  2.416428777794812E-005  2.446823710077699E-005  2.477600963543385E-005 
 2.508765347200345E-005  2.540321730546927E-005  2.572275044332233E-005  2.604630281326549E-005 
 2.637392497101482E-005  2.670566810819907E-005  2.704158406035832E-005  2.738172531504353E-005 
 2.772614502001777E-005  2.807489699156064E-005  2.842803572287730E-005  2.878561639261294E-005 
 2.914769487347472E-005  2.951432774096192E-005  2.988557228220599E-005  3.026148650492185E-005 
 3.064212914647158E-005  3.102755968304234E-005  3.141783833893963E-005  3.181302609599745E-005 
 3.221318470310689E-005  3.261837668586442E-005  3.302866535634173E-005  3.344411482297832E-005 
 3.386479000059854E-005  3.429075662055484E-005  3.472208124099818E-005  3.515883125727804E-005 
 3.560107491247307E-005  3.604888130805408E-005  3.650232041468153E-005  3.696146308313832E-005 
 3.742638105540052E-005  3.789714697584720E-005  3.837383440261117E-005  3.885651781907274E-005 
 3.934527264549776E-005  3.984017525082220E-005  4.034130296458505E-005  4.084873408901111E-005 
 4.136254791124600E-005  4.188282471574479E-005  4.240964579681668E-005  4.294309347132741E-005 
 4.348325109156141E-005  4.403020305824585E-005  4.458403483373830E-005  4.514483295538044E-005 
 4.571268504901973E-005  4.628767984270107E-005  4.686990718053090E-005  4.745945803671525E-005 
 4.805642452977485E-005  4.866089993693878E-005  4.927297870871918E-005  4.989275648366953E-005 
 5.052033010332805E-005  5.115579762734963E-005  5.179925834882775E-005  5.245081280980924E-005 
 5.311056281700432E-005  5.377861145769384E-005  5.445506311583705E-005  5.514002348838180E-005 
 5.583359960177981E-005  5.653589982871000E-005  5.724703390501159E-005  5.796711294683085E-005 
 5.869624946798305E-005  5.943455739753302E-005  6.018215209759695E-005  6.093915038136768E-005 
 6.170567053136714E-005  6.248183231792831E-005  6.326775701790937E-005  6.406356743364379E-005 
 6.486938791212804E-005  6.568534436445138E-005  6.651156428546952E-005  6.734817677372603E-005 
 6.819531255162444E-005  6.905310398585347E-005  6.992168510806994E-005  7.080119163584130E-005 
 7.169176099385184E-005  7.259353233537576E-005  7.350664656401977E-005  7.443124635573985E-005 
 7.536747618113456E-005  7.631548232801882E-005  7.727541292428196E-005  7.824741796103256E-005 
 7.923164931603519E-005  8.022826077744149E-005  8.123740806781986E-005  8.225924886848769E-005 
 8.329394284414896E-005  8.434165166784248E-005  8.540253904620350E-005  8.647677074504326E-005 
 8.756451461525035E-005  8.866594061901745E-005  8.978122085639854E-005  9.091052959219976E-005 
 9.205404328320860E-005  9.321194060576591E-005  9.438440248368403E-005  9.557161211651681E-005 
 9.677375500818473E-005  9.799101899596034E-005  9.922359427981844E-005  1.004716734521547E-004 
 1.017354515278791E-004  1.030151259748871E-004  1.043108967449145E-004  1.056229663047805E-004 
 1.069515396680233E-004  1.082968244269338E-004  1.096590307849926E-004  1.110383715897145E-004 
 1.124350623659068E-004  1.138493213493444E-004  1.152813695208713E-004  1.167314306409276E-004 
 1.181997312845133E-004  1.196865008765917E-004  1.211919717279359E-004  1.227163790714297E-004 
 1.242599610988218E-004  1.258229589979444E-004  1.274056169903994E-004  1.290081823697176E-004 
 1.306309055400005E-004  1.322740400550446E-004  1.339378426579608E-004  1.356225733212912E-004 
 1.373284952876291E-004  1.390558751107528E-004  1.408049826972739E-004  1.425760913488114E-004 
 1.443694778046956E-004  1.461854222852086E-004  1.480242085353703E-004  1.498861238692732E-004 
 1.517714592149763E-004  1.536805091599634E-004  1.556135719971719E-004  1.575709497716033E-004 
 1.595529483275172E-004  1.615598773562201E-004  1.635920504444563E-004  1.656497851234048E-004 
 1.677334029182961E-004  1.698432293986497E-004  1.719795942291453E-004  1.741428312211347E-004 
 1.763332783847985E-004  1.785512779819629E-004  1.807971765795774E-004  1.830713251038670E-004 
 1.853740788951659E-004  1.877057977634384E-004  1.900668460445019E-004  1.924575926569540E-004 
 1.948784111598165E-004  1.973296798109062E-004  1.998117816259365E-004  2.023251044383662E-004 
 2.048700409599980E-004  2.074469888423410E-004  2.100563507387451E-004  2.126985343673147E-004 
 2.153739525746180E-004  2.180830234001927E-004  2.208261701418670E-004  2.236038214219006E-004 
 2.264164112539564E-004  2.292643791109187E-004  2.321481699935591E-004  2.350682345000698E-004 
 2.380250288964717E-004  2.410190151879039E-004  2.440506611908164E-004  2.471204406060649E-004 
 2.502288330929284E-004  2.533763243440575E-004  2.565634061613631E-004  2.597905765328639E-004 
 2.630583397104961E-004  2.663672062889041E-004  2.697176932852235E-004  2.731103242198632E-004 
 2.765456291983098E-004  2.800241449939550E-004  2.835464151319688E-004  2.871129899742272E-004 
 2.907244268053044E-004  2.943812899195537E-004  2.980841507092763E-004  3.018335877540040E-004 
 3.056301869109037E-004  3.094745414063174E-004  3.133672519284568E-004  3.173089267212608E-004 
 3.213001816794348E-004  3.253416404446866E-004  3.294339345031705E-004  3.335777032841592E-004 
 3.377735942599552E-004  3.420222630470599E-004  3.463243735086154E-004  3.506805978581340E-004 
 3.550916167645334E-004  3.595581194584916E-004  3.640808038401418E-004  3.686603765881203E-004 
 3.732975532699858E-004  3.779930584540298E-004  3.827476258224901E-004  3.875619982861910E-004 
 3.924369281006254E-004  3.973731769834944E-004  4.023715162337293E-004  4.074327268520069E-004 
 4.125575996627833E-004  4.177469354378621E-004  4.230015450215157E-004  4.283222494571823E-004 
 4.337098801157551E-004  4.391652788254854E-004  4.446892980035210E-004  4.502828007890969E-004 
 4.559466611784037E-004  4.616817641611504E-004  4.674890058588459E-004  4.733692936648208E-004 
 4.793235463860080E-004  4.853526943865094E-004  4.914576797329666E-004  4.976394563417601E-004 
 5.038989901280628E-004  5.102372591567630E-004  5.166552537952926E-004  5.231539768683709E-004 
 5.297344438146996E-004  5.363976828456279E-004  5.431447351058101E-004  5.499766548358893E-004 
 5.568945095372228E-004  5.638993801386820E-004  5.709923611655503E-004  5.781745609105434E-004 
 5.854471016069843E-004  5.928111196041527E-004  6.002677655448426E-004  6.078182045451534E-004 
 6.154636163765398E-004  6.232051956501558E-004  6.310441520035130E-004  6.389817102894897E-004 
 6.470191107677179E-004  6.551576092983738E-004  6.633984775384114E-004  6.717430031402590E-004 
 6.801924899530188E-004  6.887482582261964E-004  6.974116448159909E-004  7.061840033941829E-004 
 7.150667046596480E-004  7.240611365525303E-004  7.331687044711130E-004  7.423908314914124E-004 
 7.517289585895386E-004  7.611845448668488E-004  7.707590677779361E-004  7.804540233614855E-004 
 7.902709264740309E-004  8.002113110266568E-004  8.102767302246732E-004  8.204687568103081E-004 
 8.307889833084505E-004  8.412390222754889E-004  8.518205065512719E-004  8.625350895142459E-004 
 8.733844453397978E-004  8.843702692618475E-004  8.954942778377357E-004  9.067582092164333E-004 
 9.181638234101346E-004  9.297129025692628E-004  9.414072512609321E-004  9.532486967509197E-004 
 9.652390892891742E-004  9.773803023989244E-004  9.896742331694200E-004  1.002122802552355E-003 
 1.014727955662025E-003  1.027491662079247E-003  1.040415916159117E-003  1.053502737342629E-003 
 1.066754170472218E-003  1.080172286111273E-003  1.093759180867660E-003  1.107516977721328E-003 
 1.121447826356026E-003  1.135553903495194E-003  1.149837413242087E-003  1.164300587424161E-003 
 1.178945685941808E-003  1.193774997121467E-003  1.208790838073180E-003  1.223995555052646E-003 
 1.239391523827828E-003  1.254981150050170E-003  1.270766869630485E-003  1.286751149119575E-003 
 1.302936486093632E-003  1.319325409544485E-003  1.335920480274768E-003  1.352724291298046E-003 
 1.369739468243976E-003  1.386968669768578E-003  1.404414587969640E-003  1.422079948807376E-003 
 1.439967512530358E-003  1.458080074106808E-003  1.476420463661325E-003  1.494991546917090E-003 
 1.513796225643645E-003  1.532837438110299E-003  1.552118159545239E-003  1.571641402600418E-003 
 1.591410217822282E-003  1.611427694128430E-003  1.631696959290261E-003  1.652221180421693E-003 
 1.673003564474037E-003  1.694047358737083E-003  1.715355851346497E-003  1.736932371797603E-003 
 1.758780291465619E-003  1.780903024132440E-003  1.803304026520060E-003  1.825986798830673E-003 
 1.848954885293603E-003  1.872211874719089E-003  1.895761401059042E-003  1.919607143974868E-003 
 1.943752829412412E-003  1.968202230184147E-003  1.992959166558688E-003  2.018027506857708E-003 
 2.043411168060385E-003  2.069114116415424E-003  2.095140368060798E-003  2.121493989651278E-003 
 2.148179098993852E-003  2.175199865691150E-003  2.202560511792941E-003  2.230265312455844E-003 
 2.258318596611328E-003  2.286724747642115E-003  2.315488204067102E-003  2.344613460234871E-003 
 2.374105067025954E-003  2.403967632563916E-003  2.434205822935373E-003  2.464824362919095E-003 
 2.495828036724248E-003  2.527221688737942E-003  2.559010224282173E-003  2.591198610380292E-003 
 2.623791876533120E-003  2.656795115504802E-003  2.690213484118575E-003  2.724052204062521E-003 
 2.758316562705478E-003  2.793011913923199E-003  2.828143678934897E-003  2.863717347150331E-003 
 2.899738477027536E-003  2.936212696941338E-003  2.973145706062810E-003  3.010543275249767E-003 
 3.048411247948479E-003  3.086755541106725E-003  3.125582146098318E-003  3.164897129659288E-003 
 3.204706634835801E-003  3.245016881944033E-003  3.285834169542108E-003  3.327164875414251E-003 
 3.369015457567351E-003  3.411392455240010E-003  3.454302489924334E-003  3.497752266400539E-003 
 3.541748573784600E-003  3.586298286589062E-003  3.631408365797183E-003  3.677085859950617E-003 
 3.723337906250759E-003  3.770171731673939E-003  3.817594654100670E-003  3.865614083459060E-003 
 3.914237522882644E-003  3.963472569882757E-003  4.013326917535658E-003  4.063808355684605E-003 
 4.114924772157010E-003  4.166684153996943E-003  4.219094588713123E-003  4.272164265542601E-003 
 4.325901476730359E-003  4.380314618824972E-003  4.435412193990594E-003  4.491202811335446E-003 
 4.547695188256986E-003  4.604898151804053E-003  4.662820640056078E-003  4.721471703519694E-003 
 4.780860506542894E-003  4.840996328746973E-003  4.901888566476506E-003  4.963546734267522E-003 
 5.025980466334181E-003  5.089199518074141E-003  5.153213767592853E-003  5.218033217247051E-003 
 5.283667995207614E-003  5.350128357042135E-003  5.417424687317364E-003  5.485567501221818E-003 
 5.554567446208816E-003  5.624435303660140E-003  5.695181990570663E-003  5.766818561254151E-003 
 5.839356209070513E-003  5.912806268174810E-003  5.987180215288207E-003  6.062489671491256E-003 
 6.138746404039707E-003  6.215962328203158E-003  6.294149509126872E-003  6.373320163716933E-003 
 6.453486662549196E-003  6.534661531802203E-003  6.616857455214419E-003  6.700087276066120E-003 
 6.784363999186140E-003  6.869700792983929E-003  6.956110991507136E-003  7.043608096525078E-003 
 7.132205779638439E-003  7.221917884415455E-003  7.312758428555017E-003  7.404741606076963E-003 
 7.497881789539916E-003  7.592193532287050E-003  7.687691570720042E-003  7.784390826601689E-003 
 7.882306409387458E-003  7.981453618586364E-003  8.081847946151575E-003  8.183505078901020E-003 
 8.286440900968514E-003  8.390671496285678E-003  8.496213151095083E-003  8.603082356495035E-003 
 8.711295811016295E-003  8.820870423231297E-003  8.931823314396129E-003  9.044171821125761E-003 
 9.157933498102965E-003  9.273126120821207E-003  9.389767688362151E-003  9.507876426208027E-003 
 9.627470789089420E-003  9.748569463868855E-003  9.871191372460640E-003  9.995355674787466E-003 
 1.012108177177419E-002  1.024838930837924E-002  1.037729817666424E-002  1.050782851890213E-002 
 1.064000073072444E-002  1.077383546430817E-002  1.090935363160273E-002  1.104657640759749E-002 
 1.118552523363038E-002  1.132622182073814E-002  1.146868815304877E-002  1.161294649121654E-002 
 1.175901937590029E-002  1.190692963128543E-002  1.205670036865030E-002  1.220835498997732E-002 
 1.236191719160960E-002  1.251741096795360E-002  1.267486061522821E-002  1.283429073526116E-002 
 1.299572623933306E-002  1.315919235206985E-002  1.332471461538424E-002  1.349231889246664E-002 
 1.366203137182632E-002  1.383387857138347E-002  1.400788734261263E-002  1.418408487473835E-002 
 1.436249869898349E-002  1.454315669287108E-002  1.472608708458021E-002  1.491131845735676E-002 
 1.509887975397959E-002  1.528880028128289E-002  1.548110971473545E-002  1.567583810307750E-002 
 1.587301587301587E-002  1.607267383397833E-002  1.627484318292745E-002  1.647955550923533E-002 
 1.668684279961944E-002  1.689673744314062E-002  1.710927223626400E-002  1.732448038798336E-002 
 1.754239552501029E-002  1.776305169702827E-002  1.798648338201312E-002  1.821272549162020E-002 
 1.844181337663942E-002  1.867378283251891E-002  1.890867010495808E-002  1.914651189557112E-002 
 1.938734536762175E-002  1.963120815182992E-002  1.987813835225182E-002  2.012817455223366E-002 
 2.038135582044034E-002  2.063772171696018E-002  2.089731229948606E-002  2.116016812957466E-002 
 2.142633027898419E-002  2.169584033609201E-002  2.196874041239288E-002  2.224507314907895E-002 
 2.252488172370251E-002  2.280820985692263E-002  2.309510181933653E-002  2.338560243839708E-002 
 2.367975710541700E-002  2.397761178266148E-002  2.427921301052984E-002  2.458460791482751E-002 
 2.489384421412967E-002  2.520697022723721E-002  2.552403488072673E-002  2.584508771659541E-002 
 2.617017890000203E-002  2.649935922710545E-002  2.683268013300146E-002  2.717019369975977E-002 
 2.751195266456185E-002  2.785801042794125E-002  2.820842106212760E-002  2.856323931949539E-002 
 2.892252064111921E-002  2.928632116543653E-002  2.965469773701940E-002  3.002770791545667E-002 
 3.040540998434757E-002  3.078786296040881E-002  3.117512660269601E-002  3.156726142194114E-002 
 3.196432869000757E-002  3.236639044946374E-002  3.277350952327758E-002  3.318574952463265E-002 
 3.360317486686785E-002  3.402585077354221E-002  3.445384328862608E-002  3.488721928682068E-002 
 3.532604648400745E-002  3.577039344782871E-002  3.622032960840165E-002  3.667592526916674E-002 
 3.713725161787289E-002  3.760438073770066E-002  3.807738561852537E-002  3.855634016832205E-002 
 3.904131922471350E-002  3.953239856666400E-002  4.002965492631984E-002  4.053316600099884E-002 
 4.104301046533090E-002  4.155926798355082E-002  4.208201922194615E-002  4.261134586146147E-002 
 4.314733061046103E-002  4.369005721765250E-002  4.423961048517225E-002  4.479607628183650E-002 
 4.535954155655818E-002  4.593009435193272E-002  4.650782381799531E-002  4.709282022615029E-002 
 4.768517498327670E-002  4.828498064601056E-002  4.889233093520684E-002  4.950732075058405E-002 
 5.013004618555189E-002  5.076060454222658E-002  5.139909434663434E-002  5.204561536410593E-002 
 5.270026861486590E-002  5.336315638981635E-002  5.403438226652092E-002  5.471405112538853E-002 
 5.540226916606097E-002  5.609914392400751E-002  5.680478428732667E-002  5.751930051376097E-002 
 5.824280424792455E-002  5.897540853874768E-002  5.971722785714150E-002  6.046837811388353E-002 
 6.122897667772973E-002  6.199914239375325E-002  6.277899560191393E-002  6.356865815586236E-002 
 6.436825344197900E-002  6.517790639865415E-002  6.599774353580970E-002  6.682789295466603E-002 
 6.766848436775909E-002  6.851964911920706E-002  6.938152020523423E-002  7.025423229495140E-002 
 7.113792175139785E-002  7.203272665284932E-002  7.293878681439191E-002  7.385624380976934E-002 
 7.478524099350388E-002  7.572592352329528E-002  7.667843838270291E-002  7.764293440411121E-002 
 7.861956229198593E-002  7.960847464642164E-002  8.060982598698542E-002  8.162377277686177E-002 
 8.265047344729921E-002  8.369008842236650E-002  8.474278014401873E-002  8.580871309747884E-002 
 8.688805383693976E-002  8.798097101158768E-002  8.908763539195484E-002  9.020821989660235E-002 
 9.134289961913858E-002  9.249185185557904E-002  9.365525613204791E-002  9.483329423283050E-002 
 9.602615022877699E-002  9.723401050606327E-002  9.845706379531542E-002  9.969550120109788E-002 
 1.009495162317751E-001  1.022193048297470E-001  1.035050654020653E-001  1.048069988514355E-001 
 1.061253086076075E-001  1.074602006591631E-001  1.088118835857013E-001  1.101805685904291E-001 
 1.115664695331635E-001  1.129698029637460E-001  1.143907881558804E-001  1.158296471413942E-001 
 1.172866047449310E-001  1.187618886190807E-001  1.202557292799500E-001  1.217683601431814E-001 
 1.233000175604250E-001  1.248509408562681E-001  1.264213723656314E-001  1.280115574716329E-001 
 1.296217446439309E-001  1.312521854775472E-001  1.329031347321788E-001  1.345748503720061E-001 
 1.362675936059984E-001  1.379816289287302E-001  1.397172241617081E-001  1.414746504952180E-001 
 1.432541825307005E-001  1.450560983236560E-001  1.468806794270935E-001  1.487282109355228E-001 
 1.505989815295004E-001  1.524932835207383E-001  1.544114128977760E-001  1.563536693722314E-001 
 1.583203564256306E-001  1.603117813568262E-001  1.623282553300160E-001  1.643700934233602E-001 
 1.664376146782154E-001  1.685311421489843E-001  1.706510029535929E-001  1.727975283246055E-001 
 1.749710536609778E-001  1.771719185804661E-001  1.794004669726919E-001  1.816570470528749E-001 
 1.839420114162445E-001  1.862557170931304E-001  1.885985256047523E-001  1.909708030197070E-001 
 1.933729200111662E-001  1.958052519147979E-001  1.982681787874097E-001  2.007620854663369E-001 
 2.032873616295721E-001  2.058444018566529E-001  2.084336056903179E-001  2.110553776989331E-001 
 2.137101275397097E-001  2.163982700227105E-001  2.191202251756682E-001  2.218764183096134E-001 
 2.246672800853303E-001  2.274932465806500E-001  2.303547593585861E-001  2.332522655363324E-001 
 2.361862178551246E-001  2.391570747509808E-001  2.421653004263362E-001  2.452113649225718E-001 
 2.482957441934630E-001  2.514189201795465E-001  2.545813808834234E-001  2.577836204460136E-001 
 2.610261392237629E-001  2.643094438668277E-001  2.676340473982389E-001  2.710004692940613E-001 
 2.744092355645661E-001  2.778608788364173E-001  2.813559384358991E-001  2.848949604731850E-001 
 2.884784979276677E-001  2.921071107343662E-001  2.957813658714130E-001  2.995018374486489E-001 
 3.032691067973280E-001  3.070837625609495E-001  3.109464007872384E-001  3.148576250212751E-001 
 3.188180463998043E-001  3.228282837467242E-001  3.268889636697783E-001  3.310007206584672E-001 
 3.351641971831846E-001  3.393800437956086E-001  3.436489192303504E-001  3.479714905078805E-001 
 3.523484330387566E-001  3.567804307291528E-001  3.612681760877259E-001  3.658123703338191E-001 
 3.704137235070273E-001  3.750729545781468E-001  3.797907915615104E-001  3.845679716287457E-001 
 3.894052412239583E-001  3.943033561803627E-001  3.992630818383873E-001  4.042851931652555E-001 
 4.093704748760804E-001  4.145197215564761E-001  4.197337377867111E-001  4.250133382674310E-001 
 4.303593479469509E-001  4.357726021501603E-001  4.412539467090427E-001  4.468042380948358E-001 
 4.524243435518622E-001  4.581151412330323E-001  4.638775203370626E-001  4.697123812474124E-001 
 4.756206356729686E-001  4.816032067905073E-001  4.876610293889355E-001  4.937950500153597E-001 
 5.000062271229836E-001  5.062955312208651E-001  5.126639450255670E-001  5.191124636147012E-001 
 5.256420945824176E-001  5.322538581968407E-001  5.389487875594849E-001  5.457279287666862E-001 
 5.525923410730484E-001  5.595430970569609E-001  5.665812827881891E-001  5.737079979975704E-001 
 5.809243562488577E-001  5.882314851127078E-001  5.956305263428731E-001  6.031226360546000E-001 
 6.107089849052720E-001  6.183907582773337E-001  6.261691564635009E-001  6.340453948543164E-001 
 6.420207041280546E-001  6.500963304430127E-001  6.582735356322351E-001  6.665535974006668E-001 
 6.749378095248061E-001  6.834274820548566E-001  6.920239415194208E-001  7.007285311327823E-001 
 7.095426110047756E-001  7.184675583533137E-001  7.275047677195796E-001  7.366556511859202E-001 
 7.459216385964976E-001  7.553041777806937E-001  7.648047347793463E-001  7.744247940738168E-001 
 7.841658588179395E-001  7.940294510729018E-001  8.040171120450582E-001  8.141304023267572E-001 
 8.243709021401824E-001  8.347402115842611E-001  8.452399508846936E-001  8.558717606471042E-001 
 8.666373021134006E-001  8.775382574213411E-001  8.885763298673676E-001  8.997532441727598E-001 
 9.110707467531148E-001  9.225306059912379E-001  9.341346125134518E-001  9.458845794693808E-001 
 9.577823428152707E-001  9.698297616008472E-001  9.820287182598076E-001  9.943811189039511E-001 
 1.006888893621005E+000  1.019553996776221E+000  1.032378407317730E+000  1.045364129085773E+000 
 1.058513191125797E+000  1.071827648005494E+000  1.085309580135845E+000  1.098961094096169E+000 
 1.112784322963299E+000  1.126781426644872E+000  1.140954592216811E+000  1.155306034265075E+000 
 1.169837995231680E+000  1.184552745765094E+000  1.199452585075027E+000  1.214539841291681E+000 
 1.229816871829539E+000  1.245286063755701E+000  1.260949834162878E+000  1.276810630547069E+000 
 1.292870931189970E+000  1.309133245546240E+000  1.325600114635576E+000  1.342274111439778E+000 
 1.359157841304772E+000  1.376253942347697E+000  1.393565085869126E+000  1.411093976770450E+000 
 1.428843353976537E+000  1.446815990863690E+000  1.465014695692982E+000  1.483442312049075E+000 
 1.502101719284510E+000  1.520995832969633E+000  1.540127605348150E+000  1.559500025798414E+000 
 1.579116121300539E+000  1.598978956909351E+000  1.619091636233329E+000  1.639457301919537E+000 
 1.660079136144670E+000  1.680960361112286E+000  1.702104239556263E+000  1.723514075250629E+000 
 1.745193213525772E+000  1.767145041791149E+000  1.789372990064592E+000  1.811880531508239E+000 
 1.834671182971233E+000  1.857748505539237E+000  1.881116105090846E+000  1.904777632861041E+000 
 1.928736786011666E+000  1.952997308209151E+000  1.977562990209452E+000  2.002437670450352E+000 
 2.027625235651255E+000  2.053129621420460E+000  2.078954812870137E+000  2.105104845238995E+000 
 2.131583804522786E+000  2.158395828112780E+000  2.185545105442202E+000  2.213035878640876E+000 
 2.240872443198048E+000  2.269059148633556E+000  2.297600399177478E+000  2.326500654458273E+000 
 2.355764430199629E+000  2.385396298926048E+000  2.415400890677295E+000  2.445782893731888E+000 
 2.476547055339605E+000  2.507698182463293E+000  2.539241142529947E+000  2.571180864191243E+000 
 2.603522338093682E+000  2.636270617658351E+000  2.669430819870563E+000  2.703008126079383E+000 
 2.737007782807212E+000  2.771435102569594E+000  2.806295464705277E+000  2.841594316216772E+000 
 2.877337172621450E+000  2.913529618813333E+000  2.950177309935783E+000  2.987285972265087E+000 
 3.024861404105238E+000  3.062909476693914E+000  3.101436135119856E+000  3.140447399251837E+000 
 3.179949364679235E+000  3.219948203664522E+000  3.260450166107672E+000  3.301461580522708E+000 
 3.342988855026583E+000  3.385038478340414E+000  3.427617020803399E+000  3.470731135399431E+000 
 3.514387558796622E+000  3.558593112399957E+000  3.603354703417113E+000  3.648679325937759E+000 
 3.694574062026386E+000  3.741046082828867E+000  3.788102649693013E+000  3.835751115303123E+000 
 3.883998924828895E+000  3.932853617088735E+000  3.982322825727692E+000  4.032414280410274E+000 
 4.083135808028174E+000  4.134495333923282E+000  4.186500883126020E+000  4.239160581609240E+000 
 4.292482657557984E+000  4.346475442655088E+000  4.401147373383079E+000  4.456506992342374E+000 
 4.512562949586046E+000  4.569324003971482E+000  4.626799024528892E+000  4.684996991847179E+000 
 4.743926999477152E+000  4.803598255352378E+000  4.864020083228009E+000  4.925201924137562E+000 
 4.987153337868162E+000  5.049884004454255E+000  5.113403725690103E+000  5.177722426661401E+000 
 5.242850157296014E+000  5.308797093934365E+000  5.375573540919485E+000  5.443189932207054E+000 
 5.511656832995795E+000  5.580984941378235E+000  5.651185090012366E+000  5.722268247814250E+000 
 5.794245521671887E+000  5.867128158180781E+000  5.940927545401146E+000  6.015655214637389E+000 
 6.091322842239877E+000  6.167942251429346E+000  6.245525414144388E+000  6.324084452911999E+000 
 6.403631642741827E+000  6.484179413044136E+000  6.565740349571886E+000  6.648327196387370E+000 
 6.731952857853406E+000  6.816630400649744E+000  6.902373055814740E+000  6.989194220812681E+000 
 7.077107461627262E+000  7.166126514881198E+000  7.256265289982682E+000  7.347537871298723E+000 
 7.439958520355826E+000  7.533541678068459E+000  7.628301966995386E+000  7.724254193624559E+000 
 7.821413350686615E+000  7.919794619497493E+000  8.019413372330627E+000  8.120285174818797E+000 
 8.222425788386381E+000  8.325851172712071E+000  8.430577488222557E+000  8.536621098617736E+000 
 8.643998573427451E+000  8.752726690600616E+000  8.862822439126761E+000  8.974303021690558E+000 
 9.087185857359870E+000  9.201488584307404E+000  9.317229062566806E+000  9.434425376823306E+000 
 9.553095839239401E+000  9.673258992316319E+000  9.794933611791169E+000  9.918138709570808E+000 
 1.004289353670245E+001  1.016921758638160E+001  1.029713059699808E+001  1.042665255522000E+001 
 1.055780369911685E+001  1.069060452132174E+001  1.082507577223326E+001  1.096123846325801E+001 
 1.109911387009343E+001  1.123872353605237E+001  1.138008927542920E+001  1.152323317690828E+001 
 1.166817760701546E+001  1.181494521361281E+001  1.196355892943748E+001  1.211404197568495E+001 
 1.226641786563730E+001  1.242071040833741E+001  1.257694371230892E+001  1.273514218932348E+001 