<UPF version="2.0.1">
  <PP_INFO>
    Generated using "atomic" code by A. Dal Corso  v.5.1.2
    Author: ADC
    Generation date: 30Jul2016
    Pseudopotential type: USPP
    Element: Fr
    Functional: PBE

    Suggested minimum cutoff for wavefunctions:  63. Ry
    Suggested minimum cutoff for charge density: 506. Ry
    The Pseudo was generated with a Scalar-Relativistic Calculation
    Local Potential by smoothing AE potential with Bessel fncs, cutoff radius:   2.2000
    Pseudopotential contains additional information for GIPAW reconstruction.

    Valence configuration: 
    nl pn  l   occ       Rcut    Rcut US       E pseu
    6S  1  0  2.00      1.000      2.100    -2.091414
    7S  2  0  1.00      1.000      2.100    -0.159437
    6P  2  1  6.00      1.200      2.100    -0.897226
    5D  3  2 10.00      0.850      1.500    -4.234955
    Generation configuration:
    6S  1  0  2.00      1.000      2.100    -2.091426
    7S  2  0  1.00      1.000      2.100    -0.159441
    6P  2  1  6.00      1.200      2.100    -0.897232
    7P  3  1  0.00      1.200      2.100     6.500000
    5D  3  2 10.00      0.850      1.500    -4.234977
    5D  3  2 -2.00      0.850      1.500    -3.200000

    Pseudization used: troullier-martins
<PP_INPUTFILE>
 &input
   title='Fr',
   zed=87.,
   rel=1,
   config='[Xe] 4f14.0 5d10.0 6s2.0 6p6.0 6d-2.0 7s1. 7p-1.',
   iswitch=3,
   dft='PBE'
 /
 &inputp
   lpaw=.false.,
   pseudotype=3,
   file_pseudopw='Fr.pbe-spdn-rrkjus_psl.1.0.0.UPF',
   author='ADC',
   lloc=-1,
   rcloc=2.2,
   which_augfun='PSQ',
   rmatch_augfun_nc=.true.,
   nlcc=.true.,
   new_core_ps=.true.,
   rcore=1.2,
   tm=.true.
 /
6
6S  1  0  2.00  0.00  1.00  2.10  0.0
7S  2  0  1.00  0.00  1.00  2.10  0.0
6P  2  1  6.00  0.00  1.20  2.10  0.0
7P  3  1  0.00  6.50  1.20  2.10  0.0
5D  3  2 10.00  0.00  0.85  1.50  0.0
5D  3  2 -2.00 -3.20  0.85  1.50  0.0
</PP_INPUTFILE>
  </PP_INFO>
  <!--                               -->
  <!-- END OF HUMAN READABLE SECTION -->
  <!--                               -->
  <PP_HEADER generated='Generated using "atomic" code by A. Dal Corso  v.5.1.2'
             author="ADC"
             date="30Jul2016"
             comment=""
             element="Fr"
             pseudo_type="USPP"
             relativistic="scalar"
             is_ultrasoft="T"
             is_paw="F"
             is_coulomb="F"
             has_so="F"
             has_wfc="F"
             has_gipaw="T"
             paw_as_gipaw="F"
             core_correction="T"
             functional="PBE"
             z_valence="1.900000000000000E+001"
             total_psenergy="-2.844849583636778E+002"
             wfc_cutoff="6.293447866764527E+001"
             rho_cutoff="5.060843139923787E+002"
             l_max="2"
             l_max_rho="4"
             l_local="-1"
             mesh_size="1287"
             number_of_wfc="4"
             number_of_proj="6"/>
  <PP_MESH dx="1.250000000000000E-002" mesh="1287" xmin="-7.000000000000000E+000" rmax="1.000000000000000E+002"
zmesh="8.700000000000000E+001">
    <PP_R type="real" size="1287" columns="4">
 1.048140190292547E-005  1.061324170883934E-005  1.074673985536301E-005  1.088191720185349E-005 
 1.101879487004620E-005  1.115739424735528E-005  1.129773699021539E-005  1.143984502746565E-005 
 1.158374056377598E-005  1.172944608311672E-005  1.187698435227169E-005  1.202637842439561E-005 
 1.217765164261621E-005  1.233082764368157E-005  1.248593036165354E-005  1.264298403164734E-005 
 1.280201319361843E-005  1.296304269619692E-005  1.312609770057020E-005  1.329120368441446E-005 
 1.345838644587557E-005  1.362767210760015E-005  1.379908712081725E-005  1.397265826947143E-005 
 1.414841267440783E-005  1.432637779760977E-005  1.450658144648982E-005  1.468905177823476E-005 
 1.487381730420515E-005  1.506090689439035E-005  1.525034978191944E-005  1.544217556762904E-005 
 1.563641422468844E-005  1.583309610328295E-005  1.603225193535631E-005  1.623391283941243E-005 
 1.643811032537787E-005  1.664487629952524E-005  1.685424306945866E-005  1.706624334916192E-005 
 1.728091026411003E-005  1.749827735644519E-005  1.771837859021782E-005  1.794124835669347E-005 
 1.816692147972663E-005  1.839543322120189E-005  1.862681928654376E-005  1.886111583029570E-005 
 1.909835946176936E-005  1.933858725076484E-005  1.958183673336292E-005  1.982814591779014E-005 
 2.007755329035770E-005  2.033009782147495E-005  2.058581897173873E-005  2.084475669809903E-005 
 2.110695146010238E-005  2.137244422621381E-005  2.164127648021813E-005  2.191349022770203E-005 
 2.218912800261735E-005  2.246823287392721E-005  2.275084845233559E-005  2.303701889710160E-005 
 2.332678892293947E-005  2.362020380700528E-005  2.391730939597160E-005  2.421815211319120E-005 
 2.452277896595067E-005  2.483123755281557E-005  2.514357607106765E-005  2.545984332423583E-005 
 2.578008872972188E-005  2.610436232652192E-005  2.643271478304524E-005  2.676519740503119E-005 
 2.710186214356590E-005  2.744276160319969E-005  2.778794905016670E-005  2.813747842070785E-005 
 2.849140432949838E-005  2.884978207818159E-005  2.921266766400986E-005  2.958011778859425E-005 
 2.995218986676435E-005  3.032894203553933E-005  3.071043316321208E-005  3.109672285854744E-005 
 3.148787148009619E-005  3.188394014562631E-005  3.228499074167256E-005  3.269108593320652E-005 
 3.310228917342808E-005  3.351866471368009E-005  3.394027761348789E-005  3.436719375072483E-005 
 3.479947983190592E-005  3.523720340261084E-005  3.568043285803803E-005  3.612923745369173E-005 
 3.658368731620307E-005  3.704385345428766E-005  3.750980776984079E-005  3.798162306917221E-005 
 3.845937307438243E-005  3.894313243488174E-005  3.943297673905442E-005  3.992898252606958E-005 
 4.043122729784056E-005  4.093978953113482E-005  4.145474868983598E-005  4.197618523736027E-005 
 4.250418064922910E-005  4.303881742579977E-005  4.358017910515641E-005  4.412835027616280E-005 
 4.468341659167966E-005  4.524546478194808E-005  4.581458266814127E-005  4.639085917608688E-005 
 4.697438435016168E-005  4.756524936736134E-005  4.816354655154689E-005  4.876936938787058E-005 
 4.938281253738322E-005  5.000397185182493E-005  5.063294438860237E-005  5.126982842595404E-005 
 5.191472347830650E-005  5.256773031182383E-005  5.322895096015225E-005  5.389848874036334E-005 
 5.457644826909745E-005  5.526293547891018E-005  5.595805763482487E-005  5.666192335109255E-005 
 5.737464260816341E-005  5.809632676987142E-005  5.882708860083507E-005  5.956704228407730E-005 
 6.031630343886649E-005  6.107498913878248E-005  6.184321793000943E-005  6.262110984985891E-005 
 6.340878644552611E-005  6.420637079308161E-005  6.501398751670239E-005  6.583176280814465E-005 
 6.665982444646139E-005  6.749830181796841E-005  6.834732593646085E-005  6.920702946368459E-005 
 7.007754673006480E-005  7.095901375569542E-005  7.185156827159267E-005  7.275534974121548E-005 
 7.367049938225727E-005  7.459716018871134E-005  7.553547695321394E-005  7.648559628966867E-005 
 7.744766665615479E-005  7.842183837812445E-005  7.940826367189117E-005  8.040709666841392E-005 
 8.141849343738076E-005  8.244261201159424E-005  8.347961241166542E-005  8.452965667101650E-005 
 8.559290886119929E-005  8.666953511753190E-005  8.775970366505703E-005  8.886358484482840E-005 
 8.998135114052613E-005  9.111317720540797E-005  9.225923988959956E-005  9.341971826772657E-005 
 9.459479366689690E-005  9.578464969503229E-005  9.698947226955783E-005  9.820944964645225E-005 
 9.944477244966247E-005  1.006956337008900E-004  1.019622288497501E-004  1.032447558043117E-004 
 1.045434149620210E-004  1.058584092410131E-004  1.071899441118198E-004  1.085382276294737E-004 
 1.099034704660173E-004  1.112858859434217E-004  1.126856900669176E-004  1.141031015587473E-004 
 1.155383418923401E-004  1.169916353269180E-004  1.184632089425374E-004  1.199532926755690E-004 
 1.214621193546282E-004  1.229899247369532E-004  1.245369475452431E-004  1.261034295049596E-004 
 1.276896153820955E-004  1.292957530214214E-004  1.309220933852112E-004  1.325688905924554E-004 
 1.342364019585684E-004  1.359248880355933E-004  1.376346126529152E-004  1.393658429584839E-004 
 1.411188494605567E-004  1.428939060699666E-004  1.446912901429195E-004  1.465112825243341E-004 
 1.483541675917227E-004  1.502202332996262E-004  1.521097712246085E-004  1.540230766108141E-004 
 1.559604484161027E-004  1.579221893587603E-004  1.599086059648002E-004  1.619200086158590E-004 
 1.639567115976926E-004  1.660190331492860E-004  1.681072955125773E-004  1.702218249828092E-004 
 1.723629519595140E-004  1.745310109981373E-004  1.767263408623153E-004  1.789492845768056E-004 
 1.812001894810861E-004  1.834794072836278E-004  1.857872941168491E-004  1.881242105927635E-004 
 1.904905218593248E-004  1.928865976574823E-004  1.953128123789550E-004  1.977695451247285E-004 
 2.002571797642933E-004  2.027761049956226E-004  2.053267144059084E-004  2.079094065330611E-004 
 2.105245849279791E-004  2.131726582176079E-004  2.158540401687863E-004  2.185691497528995E-004 
 2.213184112113440E-004  2.241022541218160E-004  2.269211134654343E-004  2.297754296947061E-004 
 2.326656488023493E-004  2.355922223909800E-004  2.385556077436752E-004  2.415562678954257E-004 
 2.445946717054848E-004  2.476712939306295E-004  2.507866152993422E-004  2.539411225869246E-004 
 2.571353086915586E-004  2.603696727113215E-004  2.636447200221716E-004  2.669609623569146E-004 
 2.703189178851622E-004  2.737191112942975E-004  2.771620738714583E-004  2.806483435865522E-004 
 2.841784651763150E-004  2.877529902294270E-004  2.913724772727005E-004  2.950374918583498E-004 
 2.987486066523603E-004  3.025064015239692E-004  3.063114636362699E-004  3.101643875379596E-004 
 3.140657752562364E-004  3.180162363908687E-004  3.220163882094463E-004  3.260668557438287E-004 
 3.301682718878096E-004  3.343212774960054E-004  3.385265214839919E-004  3.427846609296978E-004 
 3.470963611760747E-004  3.514622959350586E-004  3.558831473928378E-004  3.603596063164470E-004 
 3.648923721617006E-004  3.694821531824835E-004  3.741296665414187E-004  3.788356384219237E-004 
 3.836008041416791E-004  3.884259082675237E-004  3.933117047317935E-004  3.982589569501267E-004 
 4.032684379407476E-004  4.083409304452525E-004  4.134772270509157E-004  4.186781303145314E-004 
 4.239444528878163E-004  4.292770176443864E-004  4.346766578083343E-004  4.401442170844214E-004 
 4.456805497899082E-004  4.512865209880438E-004  4.569630066232335E-004  4.627108936579063E-004 
 4.685310802111060E-004  4.744244756988224E-004  4.803920009760910E-004  4.864345884808772E-004 
 4.925531823797723E-004  4.987487387155215E-004  5.050222255564071E-004  5.113746231475118E-004 
 5.178069240638830E-004  5.243201333656254E-004  5.309152687549439E-004  5.375933607351607E-004 
 5.443554527717348E-004  5.512026014553043E-004  5.581358766667813E-004  5.651563617445239E-004 
 5.722651536536086E-004  5.794633631572342E-004  5.867521149902806E-004  5.941325480350506E-004 
 6.016058154992228E-004  6.091730850960437E-004  6.168355392267832E-004  6.245943751654884E-004 
 6.324508052460605E-004  6.404060570516828E-004  6.484613736066362E-004  6.566180135705206E-004 
 6.648772514349251E-004  6.732403777225697E-004  6.817086991889508E-004  6.902835390265281E-004 
 6.989662370714709E-004  7.077581500130142E-004  7.166606516054421E-004  7.256751328827399E-004 
 7.348030023759491E-004  7.440456863332478E-004  7.534046289428087E-004  7.628812925584556E-004 
 7.724771579281581E-004  7.821937244254046E-004  7.920325102834779E-004  8.019950528326858E-004 
 8.120829087405704E-004  8.222976542551405E-004  8.326408854511662E-004  8.431142184795648E-004 
 8.537192898199300E-004  8.644577565362348E-004  8.753312965357508E-004  8.863416088312266E-004 
 8.974904138063582E-004  9.087794534846056E-004  9.202104918013860E-004  9.317853148796924E-004 
 9.435057313091816E-004  9.553735724287651E-004  9.673906926127632E-004  9.795589695606537E-004 
 9.918803045904654E-004  1.004356622935867E-003  1.016989874046981E-003  1.029782031894997E-003 
 1.042735095280604E-003  1.055851088146309E-003  1.069132059892684E-003  1.082580085698583E-003 
 1.096197266845398E-003  1.109985731045389E-003  1.123947632774139E-003  1.138085153607199E-003 
 1.152400502560963E-003  1.166895916437829E-003  1.181573660175706E-003  1.196436027201916E-003 
 1.211485339791544E-003  1.226723949430301E-003  1.242154237181946E-003  1.257778614060333E-003 
 1.273599521406137E-003  1.289619431268319E-003  1.305840846790388E-003  1.322266302601522E-003 
 1.338898365212610E-003  1.355739633417271E-003  1.372792738697927E-003  1.390060345636974E-003 
 1.407545152333126E-003  1.425249890823003E-003  1.443177327508015E-003  1.461330263586616E-003 
 1.479711535492003E-003  1.498324015335307E-003  1.517170611354371E-003  1.536254268368167E-003 
 1.555577968236928E-003  1.575144730328074E-003  1.594957611987992E-003  1.615019709019749E-003 
 1.635334156166824E-003  1.655904127602911E-003  1.676732837427901E-003  1.697823540170079E-003 
 1.719179531294657E-003  1.740804147718697E-003  1.762700768332511E-003  1.784872814527621E-003 
 1.807323750731353E-003  1.830057084948165E-003  1.853076369307780E-003  1.876385200620212E-003 
 1.899987220937777E-003  1.923886118124167E-003  1.948085626430692E-003  1.972589527079757E-003 
 1.997401648855691E-003  2.022525868703006E-003  2.047966112332167E-003  2.073726354832999E-003 
 2.099810621295802E-003  2.126222987440279E-003  2.152967580252380E-003  2.180048578629142E-003 
 2.207470214031658E-003  2.235236771146249E-003  2.263352588553955E-003  2.291822059408450E-003 
 2.320649632122476E-003  2.349839811062921E-003  2.379397157254630E-003  2.409326289093078E-003 
 2.439631883066013E-003  2.470318674484146E-003  2.501391458221069E-003  2.532855089462460E-003 
 2.564714484464711E-003  2.596974621323114E-003  2.629640540749684E-003  2.662717346860792E-003 
 2.696210207974687E-003  2.730124357419059E-003  2.764465094348761E-003  2.799237784573802E-003 
 2.834447861397777E-003  2.870100826466824E-003  2.906202250629270E-003  2.942757774806093E-003 
 2.979773110872318E-003  3.017254042549510E-003  3.055206426309503E-003  3.093636192289470E-003 
 3.132549345218536E-003  3.171951965356014E-003  3.211850209441465E-003  3.252250311656702E-003 
 3.293158584599886E-003  3.334581420271901E-003  3.376525291075091E-003  3.418996750824606E-003 
 3.462002435772440E-003  3.505549065644359E-003  3.549643444689884E-003  3.594292462745447E-003 
 3.639503096310958E-003  3.685282409639895E-003  3.731637555843101E-003  3.778575778006485E-003 
 3.826104410322755E-003  3.874230879237408E-003  3.922962704609126E-003  3.972307500884765E-003 
 4.022272978289143E-003  4.072866944029757E-003  4.124097303516687E-003  4.175972061597833E-003 
 4.228499323809682E-003  4.281687297643828E-003  4.335544293829392E-003  4.390078727631599E-003 
 4.445299120166684E-003  4.501214099733321E-003  4.557832403160838E-003  4.615162877174330E-003 
 4.673214479777004E-003  4.731996281649871E-003  4.791517467569062E-003  4.851787337840983E-003 
 4.912815309755481E-003  4.974610919057328E-003  5.037183821436202E-003  5.100543794035401E-003 
 5.164700736979559E-003  5.229664674921536E-003  5.295445758608805E-003  5.362054266469525E-003 
 5.429500606218560E-003  5.497795316483725E-003  5.566949068452444E-003  5.636972667539154E-003 
 5.707877055073677E-003  5.779673310010815E-003  5.852372650661486E-003  5.925986436445567E-003 
 6.000526169666855E-003  6.076003497310319E-003  6.152430212861958E-003  6.229818258151577E-003 
 6.308179725218696E-003  6.387526858201973E-003  6.467872055252369E-003  6.549227870470379E-003 
 6.631607015867664E-003  6.715022363353288E-003  6.799486946745005E-003  6.885013963805814E-003 
 6.971616778306131E-003  7.059308922111930E-003  7.148104097299084E-003  7.238016178294372E-003 
 7.329059214043377E-003  7.421247430205656E-003  7.514595231377557E-003  7.609117203342922E-003 
 7.704828115352180E-003  7.801742922430055E-003  7.899876767712324E-003  7.999244984811978E-003 
 8.099863100215099E-003  8.201746835706930E-003  8.304912110828422E-003  8.409375045363699E-003 
 8.515151961858827E-003  8.622259388172208E-003  8.730714060057114E-003  8.840532923776678E-003 
 8.951733138751781E-003  9.064332080242262E-003  9.178347342061808E-003  9.293796739327044E-003 
 9.410698311241177E-003  9.529070323912647E-003  9.648931273209281E-003  9.770299887648258E-003 
 9.893195131322509E-003  1.001763620686389E-002  1.014364255844363E-002  1.027123387481053E-002 
 1.040043009236735E-002  1.053125139828595E-002  1.066371823366154E-002  1.079785129670662E-002 
 1.093367154598522E-002  1.107120020368761E-002  1.121045875894636E-002  1.135146897119405E-002 
 1.149425287356322E-002  1.163883277632913E-002  1.178523127039574E-002  1.193347123082558E-002 
 1.208357582041408E-002  1.223556849330873E-002  1.238947299867393E-002  1.254531338440175E-002 
 1.270311400086952E-002  1.286289950474461E-002  1.302469486283708E-002  1.318852535600083E-002 
 1.335441658308372E-002  1.352239446492748E-002  1.369248524841792E-002  1.386471551058598E-002 
 1.403911216276058E-002  1.421570245477339E-002  1.439451397921684E-002  1.457557467575541E-002 
 1.475891283549128E-002  1.494455710538496E-002  1.513253649273129E-002  1.532288036969199E-002 
 1.551561847788510E-002  1.571078093303214E-002  1.590839822966381E-002  1.610850124588476E-002 
 1.631112124819837E-002  1.651628989639225E-002  1.672403924848507E-002  1.693440176573581E-002 
 1.714741031771575E-002  1.736309818744452E-002  1.758149907659057E-002  1.780264711073716E-002 
 1.802657684471459E-002  1.825332326799936E-002  1.848292181018142E-002  1.871540834650013E-002 
 1.895081920344975E-002  1.918919116445567E-002  1.943056147562175E-002  1.967496785155018E-002 
 1.992244848123444E-002  2.017304203402642E-002  2.042678766567860E-002  2.068372502446218E-002 
 2.094389425736218E-002  2.120733601635059E-002  2.147409146473819E-002  2.174420228360655E-002 
 2.201771067832065E-002  2.229465938512362E-002  2.257509167781435E-002  2.285905137450910E-002 
 2.314658284448824E-002  2.343773101512892E-002  2.373254137892514E-002  2.403106000059606E-002 
 2.433333352428362E-002  2.463940918084092E-002  2.494933479521199E-002  2.526315879390463E-002 
 2.558093021255712E-002  2.590269870360010E-002  2.622851454401499E-002  2.655842864318971E-002 
 2.689249255087347E-002  2.723075846523151E-002  2.757327924100113E-002  2.792010839775045E-002 
 2.827130012824081E-002  2.862690930689462E-002  2.898699149836954E-002  2.935160296624054E-002 
 2.972080068179134E-002  3.009464233291611E-002  3.047318633313342E-002  3.085649183071347E-002 
 3.124461871792006E-002  3.163762764036905E-002  3.203558000650404E-002  3.243853799719195E-002 
 3.284656457543868E-002  3.325972349622714E-002  3.367807931647936E-002  3.410169740514331E-002 
 3.453064395340726E-002  3.496498598504214E-002  3.540479136687392E-002  3.585012881938845E-002 
 3.630106792746861E-002  3.675767915126752E-002  3.722003383721797E-002  3.768820422918016E-002 
 3.816226347973047E-002  3.864228566159116E-002  3.912834577920480E-002  3.962051978045376E-002 
 4.011888456852691E-002  4.062351801393647E-002  4.113449896668483E-002  4.165190726858552E-002 
 4.217582376573847E-002  4.270633032116211E-002  4.324350982758522E-002  4.378744622039842E-002 
 4.433822449076981E-002  4.489593069892477E-002  4.546065198759284E-002  4.603247659562447E-002 
 4.661149387177789E-002  4.719779428868059E-002  4.779146945696564E-002  4.839261213958575E-002 
 4.900131626630830E-002  4.961767694839132E-002  5.024179049344548E-002  5.087375442048205E-002 
 5.151366747515017E-002  5.216162964516675E-002  5.281774217593897E-002  5.348210758638470E-002 
 5.415482968495109E-002  5.483601358583452E-002  5.552576572540556E-002  5.622419387883915E-002 
 5.693140717695532E-002  5.764751612327083E-002  5.837263261126530E-002  5.910686994186542E-002 
 5.985034284114771E-002  6.060316747826540E-002  6.136546148359977E-002  6.213734396713985E-002 
 6.291893553709431E-002  6.371035831873591E-002  6.451173597348454E-002  6.532319371822928E-002 
 6.614485834489346E-002  6.697685824024689E-002  6.781932340596572E-002  6.867238547894623E-002 
 6.953617775187299E-002  7.041083519404583E-002  7.129649447246979E-002  7.219329397320881E-002 
 7.310137382300953E-002  7.402087591119613E-002  7.495194391184037E-002  7.589472330621189E-002 
 7.684936140550888E-002  7.781600737387670E-002  7.879481225171474E-002  7.978592897927628E-002 
 8.078951242056667E-002  8.180571938754019E-002  8.283470866460305E-002  8.387664103342340E-002 
 8.493167929805345E-002  8.599998831036880E-002  8.708173499582585E-002  8.817708837954515E-002 
 8.928621961272158E-002  9.040930199936657E-002  9.154651102338827E-002  9.269802437601006E-002 
 9.386402198353616E-002  9.504468603546522E-002  9.624020101295706E-002  9.745075371765956E-002 
 9.867653330089536E-002  9.991773129321840E-002  1.011745416343404E-001  1.024471607034338E-001 
 1.037357873498176E-001  1.050406229240268E-001  1.063618713092746E-001  1.076997389533096E-001 
 1.090544349006727E-001  1.104261708253622E-001  1.118151610639068E-001  1.132216226488573E-001 
 1.146457753426980E-001  1.160878416721845E-001  1.175480469631150E-001  1.190266193755367E-001 
 1.205237899393974E-001  1.220397925906438E-001  1.235748642077742E-001  1.251292446488523E-001 
 1.267031767889840E-001  1.282969065582686E-001  1.299106829802252E-001  1.315447582107026E-001 
 1.331993875772805E-001  1.348748296191634E-001  1.365713461275793E-001  1.382892021866844E-001 
 1.400286662149824E-001  1.417900100072674E-001  1.435735087770898E-001  1.453794411997612E-001 
 1.472080894558970E-001  1.490597392755073E-001  1.509346799826440E-001  1.528332045406068E-001 
 1.547556095977208E-001  1.567021955336869E-001  1.586732665065183E-001  1.606691305000649E-001 
 1.626900993721357E-001  1.647364889032293E-001  1.668086188458727E-001  1.689068129745855E-001 
 1.710313991364695E-001  1.731827093024344E-001  1.753610796190710E-001  1.775668504611727E-001 
 1.798003664849215E-001  1.820619766817406E-001  1.843520344328239E-001  1.866708975643547E-001 
 1.890189284034145E-001  1.913964938345994E-001  1.938039653573454E-001  1.962417191439754E-001 
 1.987101360984789E-001  2.012096019160263E-001  2.037405071432373E-001  2.063032472392030E-001 
 2.088982226372766E-001  2.115258388076445E-001  2.141865063206783E-001  2.168806409110906E-001 
 2.196086635428927E-001  2.223710004751703E-001  2.251680833286899E-001  2.280003491533371E-001 
 2.308682404964100E-001  2.337722054717658E-001  2.367126978298395E-001  2.396901770285452E-001 
 2.427051083050647E-001  2.457579627485442E-001  2.488492173737020E-001  2.519793551953617E-001 
 2.551488653039272E-001  2.583582429418003E-001  2.616079895807670E-001  2.648986130003517E-001 
 2.682306273671577E-001  2.716045533152098E-001  2.750209180273006E-001  2.784802553173676E-001 
 2.819831057139008E-001  2.855300165444006E-001  2.891215420209011E-001  2.927582433265643E-001 
 2.964406887033685E-001  3.001694535408965E-001  3.039451204662391E-001  3.077682794350363E-001 
 3.116395278236541E-001  3.155594705225299E-001  3.195287200306861E-001  3.235478965514328E-001 
 3.276176280892795E-001  3.317385505480579E-001  3.359113078302867E-001  3.401365519377814E-001 
 3.444149430735290E-001  3.487471497448501E-001  3.531338488678498E-001  3.575757258731915E-001 
 3.620734748131950E-001  3.666277984702816E-001  3.712394084667899E-001  3.759090253761629E-001 
 3.806373788355438E-001  3.854252076597812E-001  3.902732599568684E-001  3.951822932448417E-001 
 4.001530745701385E-001  4.051863806274545E-001  4.102829978811024E-001  4.154437226878958E-001 
 4.206693614215866E-001  4.259607305988574E-001  4.313186570069081E-001  4.367439778326414E-001 
 4.422375407934728E-001  4.478002042697933E-001  4.534328374390868E-001  4.591363204117463E-001 
 4.649115443685912E-001  4.707594117001127E-001  4.766808361474806E-001  4.826767429453104E-001 
 4.887480689662389E-001  4.948957628673099E-001  5.011207852382012E-001  5.074241087513252E-001 
 5.138067183138030E-001  5.202696112213651E-001  5.268137973141783E-001  5.334402991346319E-001 
 5.401501520871189E-001  5.469444045998126E-001  5.538241182884921E-001  5.607903681224191E-001 
 5.678442425923010E-001  5.749868438803771E-001  5.822192880326283E-001  5.895427051331690E-001 
 5.969582394808217E-001  6.044670497679132E-001  6.120703092613298E-001  6.197692059858341E-001 
 6.275649429097039E-001  6.354587381326953E-001  6.434518250763696E-001  6.515454526768261E-001 
 6.597408855798418E-001  6.680394043384826E-001  6.764423056131892E-001  6.849509023743792E-001 
 6.935665241076099E-001  7.022905170213032E-001  7.111242442571021E-001  7.200690861028611E-001 
 7.291264402083143E-001  7.382977218034708E-001  7.475843639197358E-001  7.569878176138356E-001 
 7.665095521945426E-001  7.761510554522546E-001  7.859138338914738E-001  7.957994129661913E-001 
 8.058093373182512E-001  8.159451710187003E-001  8.262084978121732E-001  8.366009213643649E-001 
 8.471240655125959E-001  8.577795745195507E-001  8.685691133301917E-001  8.794943678319068E-001 
 8.905570451179422E-001  9.017588737541282E-001  9.131016040489809E-001  9.245870083271875E-001 
 9.362168812065303E-001  9.479930398783117E-001  9.599173243912790E-001  9.719915979391495E-001 
 9.842177471517317E-001  9.965976823897115E-001  1.009133338043160E+000  1.021826672833774E+000 
 1.034679670120940E+000  1.047694338211637E+000  1.060872710674229E+000  1.074216846656227E+000 
 1.087728831206025E+000  1.101410775598700E+000  1.115264817665902E+000  1.129293122129886E+000 
 1.143497880941770E+000  1.157881313624013E+000  1.172445667617238E+000  1.187193218631389E+000 
 1.202126271001313E+000  1.217247158046828E+000  1.232558242437294E+000  1.248061916560800E+000 
 1.263760602897972E+000  1.279656754400487E+000  1.295752854874360E+000  1.312051419368035E+000 
 1.328554994565375E+000  1.345266159183585E+000  1.362187524376130E+000  1.379321734140754E+000 
 1.396671465732586E+000  1.414239430082489E+000  1.432028372220637E+000  1.450041071705427E+000 
 1.468280343057805E+000  1.486749036201023E+000  1.505450036905961E+000  1.524386267242031E+000 
 1.543560686033742E+000  1.562976289323047E+000  1.582636110837456E+000  1.602543222464082E+000 
 1.622700734729621E+000  1.643111797286368E+000  1.663779599404381E+000  1.684707370469784E+000 
 1.705898380489386E+000  1.727355940601621E+000  1.749083403593904E+000  1.771084164426539E+000 
 1.793361660763162E+000  1.815919373507902E+000  1.838760827349272E+000  1.861889591310901E+000 
 1.885309279309218E+000  1.909023550718116E+000  1.933036110940752E+000  1.957350711988519E+000 
 1.981971153067291E+000  2.006901281171086E+000  2.032144991683132E+000  2.057706228984559E+000 
 2.083588987070705E+000  2.109797310175172E+000  2.136335293401774E+000  2.163207083364374E+000 
 2.190416878834827E+000  2.217968931399041E+000  2.245867546121275E+000  2.274117082216847E+000 
 2.302721953733240E+000  2.331686630239826E+000  2.361015637526246E+000  2.390713558309547E+000 
 2.420785032950284E+000  2.451234760177541E+000  2.482067497823151E+000  2.513288063565105E+000 
 2.544901335680312E+000  2.576912253806865E+000  2.609325819715840E+000  2.642147098092860E+000 
 2.675381217329452E+000  2.709033370324352E+000  2.743108815294941E+000  2.777612876598814E+000 
 2.812550945565751E+000  2.847928481340119E+000  2.883751011733846E+000  2.920024134090199E+000 
 2.956753516158333E+000  2.993944896978928E+000  3.031604087780911E+000  3.069736972889450E+000 
 3.108349510645437E+000  3.147447734336443E+000  3.187037753139471E+000  3.227125753075512E+000 
 3.267717997976103E+000  3.308820830462107E+000  3.350440672934714E+000  3.392584028578992E+000 
 3.435257482380007E+000  3.478467702151722E+000  3.522221439578903E+000  3.566525531272028E+000 
 3.611386899835566E+000  3.656812554949633E+000  3.702809594465247E+000  3.749385205513429E+000 
 3.796546665628148E+000  3.844301343883506E+000  3.892656702045144E+000  3.941620295736142E+000 
 3.991199775617645E+000  4.041402888584239E+000  4.092237478974472E+000  4.143711489796526E+000 
 4.195832963969298E+000  4.248610045579187E+000  4.302050981152553E+000  4.356164120944316E+000 
 4.410957920242669E+000  4.466440940690216E+000  4.522621851621798E+000  4.579509431419034E+000 
 4.637112568882013E+000  4.695440264618167E+000  4.754501632448607E+000  4.814305900832233E+000 
 4.874862414307639E+000  4.936180634953264E+000  4.998270143865846E+000  5.061140642657459E+000 
 5.124801954971466E+000  5.189264028017420E+000  5.254536934125390E+000  5.320630872319765E+000 
 5.387556169912839E+000  5.455323284118539E+000  5.523942803686315E+000  5.593425450555715E+000 
 5.663782081531687E+000  5.735023689980943E+000  5.807161407549764E+000  5.880206505903267E+000 
 5.954170398486689E+000  6.029064642308740E+000  6.104900939747369E+000  6.181691140378361E+000 
 6.259447242826775E+000  6.338181396641825E+000  6.417905904195242E+000  6.498633222603508E+000 
 6.580375965674389E+000  6.663146905877775E+000  6.746958976341481E+000  6.831825272872049E+000 
 6.917759056000945E+000  7.004773753056645E+000  7.092882960262570E+000  7.182100444861620E+000 
 7.272440147267289E+000  7.363916183241849E+000  7.456542846102058E+000  7.550334608952411E+000 
 7.645306126946688E+000  7.741472239577810E+000  7.838847972996500E+000  7.937448542359245E+000 
 8.037289354205583E+000  8.138386008865510E+000  8.240754302897010E+000  8.344410231554269E+000 
 8.449369991287057E+000  8.555649982271346E+000  8.663266810971969E+000  8.772237292737374E+000 
 8.882578454427010E+000  8.994307537071915E+000  9.107441998568529E+000  9.221999516406655E+000 
 9.337997990431541E+000  9.455455545640717E+000  9.574390535016192E+000  9.694821542391994E+000 
 9.816767385358064E+000  9.940247118200480E+000  1.006528003487869E+001  1.019188567204034E+001 
 1.032008381207377E+001  1.044989448619922E+001  1.058133797759863E+001  1.071443482458492E+001 