<UPF version="2.0.1">
  <PP_INFO>
    Generated using "atomic" code by A. Dal Corso  v.5.1.2
    Author: ADC
    Generation date: 30Jul2016
    Pseudopotential type: PAW
    Element: Gd
    Functional:  SLA  PW   PBX  PBC

    Suggested minimum cutoff for wavefunctions: 117. Ry
    Suggested minimum cutoff for charge density: 579. Ry
    The Pseudo was generated with a Scalar-Relativistic Calculation
    Local Potential by smoothing AE potential with Bessel fncs, cutoff radius:   1.7000
    Pseudopotential contains additional information for GIPAW reconstruction.

    Valence configuration: 
    nl pn  l   occ       Rcut    Rcut US       E pseu
    5S  1  0  2.00      1.300      1.600    -3.385962
    6S  2  0  2.00      1.300      1.600    -0.269283
    5P  2  1  6.00      1.400      1.800    -1.786461
    4D  3  2 10.00      1.000      1.200   -10.353142
    5D  4  2  0.00      1.000      1.200    -0.105081
    4F  4  3  8.00      1.100      1.300    -0.213273
    Generation configuration:
    5S  1  0  2.00      1.300      1.600    -3.385878
    6S  2  0  2.00      1.300      1.600    -0.269255
    5P  2  1  6.00      1.400      1.800    -1.786383
    6P  3  1  0.00      1.400      1.800     0.300000
    4D  3  2 10.00      1.000      1.200   -10.353055
    5D  4  2  0.00      1.000      1.200    -0.105045
    4F  4  3  8.00      1.100      1.300    -0.213186
    4F  4  3  0.00      1.100      1.300     1.000000

    Pseudization used: troullier-martins
<PP_INPUTFILE>
 &input
   title='Gd',
   zed=64.0,
   rel=1,
   config='[Xe] 4f8 5d0.0 6s2. 6p0.',
   iswitch=3,
   dft='PBE'
 /
 &inputp
   lpaw=.true.,
   pseudotype=3,
   file_pseudopw='Gd.pbe-spdfn-kjpaw_psl.1.0.0.UPF',
   author='ADC',
   lloc=-1,
   rcloc=1.7,
   which_augfun='PSQ',
   rmatch_augfun_nc=.true.,
   nlcc=.true.,
   new_core_ps=.true.,
   rcore=1.2,
   tm=.true.
 /
8
5S  1  0  2.00  0.00  1.30  1.60  0.0
6S  2  0  2.00  0.00  1.30  1.60  0.0
5P  2  1  6.00  0.00  1.40  1.80  0.0
6P  3  1  0.00  0.30  1.40  1.80  0.0
4D  3  2 10.00  0.00  1.00  1.20  0.0
5D  4  2  0.00  0.00  1.00  1.20  0.0
4F  4  3  8.00  0.00  1.10  1.30  0.0
4F  4  3  0.00  1.00  1.10  1.30  0.0
</PP_INPUTFILE>
  </PP_INFO>
  <!--                               -->
  <!-- END OF HUMAN READABLE SECTION -->
  <!--                               -->
  <PP_HEADER generated='Generated using "atomic" code by A. Dal Corso  v.5.1.2'
             author="ADC"
             date="30Jul2016"
             comment=""
             element="Gd"
             pseudo_type="PAW"
             relativistic="scalar"
             is_ultrasoft="T"
             is_paw="T"
             is_coulomb="F"
             has_so="F"
             has_wfc="T"
             has_gipaw="T"
             paw_as_gipaw="T"
             core_correction="T"
             functional=" SLA  PW   PBX  PBC"
             z_valence="2.800000000000000E+001"
             total_psenergy="-1.196950670293795E+003"
             wfc_cutoff="1.166060175763639E+002"
             rho_cutoff="5.785602573605134E+002"
             l_max="3"
             l_max_rho="6"
             l_local="-1"
             mesh_size="1263"
             number_of_wfc="6"
             number_of_proj="8"/>
  <PP_MESH dx="1.250000000000000E-002" mesh="1263" xmin="-7.000000000000000E+000" rmax="1.000000000000000E+002"
zmesh="6.400000000000000E+001">
    <PP_R type="real" size="1263" columns="4">
 1.424815571178932E-005  1.442737544795347E-005  1.460884949088410E-005  1.479260619626959E-005 
 1.497867427646906E-005  1.516708280499858E-005  1.535786122107404E-005  1.555103933421111E-005 
 1.574664732888298E-005  1.594471576923679E-005  1.614527560386933E-005  1.634835817066279E-005 
 1.655399520168141E-005  1.676221882812964E-005  1.697306158537278E-005  1.718655641802060E-005 
 1.740273668507505E-005  1.762163616514269E-005  1.784328906171262E-005  1.806773000850090E-005 
 1.829499407486210E-005  1.852511677126895E-005  1.875813405486095E-005  1.899408233506273E-005 
 1.923299847927314E-005  1.947491981862577E-005  1.971988415382210E-005  1.996792976103788E-005 
 2.021909539790388E-005  2.047342030956188E-005  2.073094423479674E-005  2.099170741224573E-005 
 2.125575058668584E-005  2.152311501540027E-005  2.179384247462498E-005  2.206797526607628E-005 
 2.234555622356054E-005  2.262662871966712E-005  2.291123667254536E-005  2.319942455276698E-005 
 2.349123739027457E-005  2.378672078141768E-005  2.408592089607735E-005  2.438888448488019E-005 
 2.469565888650339E-005  2.500629203507132E-005  2.532083246764542E-005  2.563932933180822E-005 
 2.596183239334272E-005  2.628839204400846E-005  2.661905930941522E-005  2.695388585699597E-005 
 2.729292400407999E-005  2.763622672606751E-005  2.798384766470734E-005  2.833584113647836E-005 
 2.869226214107667E-005  2.905316637000939E-005  2.941861021529652E-005  2.978865077828245E-005 
 3.016334587855796E-005  3.054275406299480E-005  3.092693461489370E-005  3.131594756324749E-005 
 3.170985369212084E-005  3.210871455014780E-005  3.251259246014890E-005  3.292155052886928E-005 
 3.333565265683919E-005  3.375496354835866E-005  3.417954872160758E-005  3.460947451888308E-005 
 3.504480811696568E-005  3.548561753761573E-005  3.593197165820213E-005  3.638394022246428E-005 
 3.684159385140989E-005  3.730500405434958E-005  3.777424324007037E-005  3.824938472814973E-005 
 3.873050276041185E-005  3.921767251252810E-005  3.971097010576341E-005  4.021047261887031E-005 
 4.071625810013279E-005  4.122840557956127E-005  4.174699508124142E-005  4.227210763583792E-005 
 4.280382529325576E-005  4.334223113546076E-005  4.388740928946114E-005  4.443944494045262E-005 
 4.499842434512880E-005  4.556443484515887E-005  4.613756488083510E-005  4.671790400489157E-005 
 4.730554289649711E-005  4.790057337542411E-005  4.850308841639545E-005  4.911318216361219E-005 
 4.973094994546355E-005  5.035648828942229E-005  5.098989493712732E-005  5.163126885965597E-005 
 5.228071027298863E-005  5.293832065366737E-005  5.360420275465210E-005  5.427846062137584E-005 
 5.496119960800201E-005  5.565252639388640E-005  5.635254900024579E-005  5.706137680703662E-005 
 5.777912057004581E-005  5.850589243819657E-005  5.924180597107200E-005  5.998697615665881E-005 
 6.074151942931454E-005  6.150555368796068E-005  6.227919831450454E-005  6.306257419249310E-005 
 6.385580372600104E-005  6.465901085875682E-005  6.547232109350905E-005  6.629586151163657E-005 
 6.712976079300531E-005  6.797414923607452E-005  6.882915877825635E-005  6.969492301653128E-005 
 7.057157722832291E-005  7.145925839263552E-005  7.235810521145697E-005  7.326825813143142E-005 
 7.418985936580434E-005  7.512305291664353E-005  7.606798459734005E-005  7.702480205539144E-005 
 7.799365479547214E-005  7.897469420279397E-005  7.996807356676018E-005  8.097394810491757E-005 
 8.199247498720913E-005  8.302381336053243E-005  8.406812437360657E-005  8.512557120215195E-005 
 8.619631907438706E-005  8.728053529684531E-005  8.837838928051731E-005  8.949005256732164E-005 
 9.061569885690846E-005  9.175550403380081E-005  9.290964619487647E-005  9.407830567719623E-005 
 9.526166508618184E-005  9.645990932414846E-005  9.767322561919627E-005  9.890180355446480E-005 
 1.001458350977560E-004  1.014055146315295E-004  1.026810389832752E-004  1.039726074562683E-004 
 1.052804218607104E-004  1.066046865452629E-004  1.079456084289771E-004  1.093033970336252E-004 
 1.106782645164395E-004  1.120704257032609E-004  1.134800981221077E-004  1.149075020371631E-004 
 1.163528604831928E-004  1.178163993003949E-004  1.192983471696869E-004  1.207989356484386E-004 
 1.223183992066527E-004  1.238569752636015E-004  1.254149042249244E-004  1.269924295201908E-004 
 1.285897976409380E-004  1.302072581791845E-004  1.318450638664302E-004  1.335034706131460E-004 
 1.351827375487599E-004  1.368831270621473E-004  1.386049048426290E-004  1.403483399214862E-004 
 1.421137047139973E-004  1.439012750620022E-004  1.457113302770051E-004  1.475441531838158E-004 
 1.494000301647423E-004  1.512792512043389E-004  1.531821099347161E-004  1.551089036814221E-004 
 1.570599335098998E-004  1.590355042725292E-004  1.610359246562617E-004  1.630615072308516E-004 
 1.651125684976977E-004  1.671894289392957E-004  1.692924130693149E-004  1.714218494833045E-004 
 1.735780709100360E-004  1.757614142634948E-004  1.779722206955215E-004  1.802108356491191E-004 
 1.824776089124290E-004  1.847728946733847E-004  1.870970515750566E-004  1.894504427716890E-004 
 1.918334359854443E-004  1.942464035638608E-004  1.966897225380312E-004  1.991637746815167E-004 
 2.016689465699980E-004  2.042056296416794E-004  2.067742202584522E-004  2.093751197678254E-004 
 2.120087345656396E-004  2.146754761595647E-004  2.173757612334003E-004  2.201100117121834E-004 
 2.228786548281134E-004  2.256821231873106E-004  2.285208548374097E-004  2.313952933360062E-004 
 2.343058878199643E-004  2.372530930755929E-004  2.402373696097099E-004  2.432591837215952E-004 
 2.463190075758513E-004  2.494173192761816E-004  2.525546029400918E-004  2.557313487745379E-004 
 2.589480531525196E-004  2.622052186906400E-004  2.655033543276419E-004  2.688429754039279E-004 
 2.722246037420862E-004  2.756487677284244E-004  2.791160023955318E-004  2.826268495058799E-004 
 2.861818576364715E-004  2.897815822645607E-004  2.934265858544439E-004  2.971174379453477E-004 
 3.008547152404208E-004  3.046390016968437E-004  3.084708886170747E-004  3.123509747412411E-004 
 3.162798663406936E-004  3.202581773127384E-004  3.242865292765585E-004  3.283655516703442E-004 
 3.324958818496434E-004  3.366781651869495E-004  3.409130551725433E-004  3.452012135166007E-004 
 3.495433102525875E-004  3.539400238419527E-004  3.583920412801395E-004  3.629000582039309E-004 
 3.674647790001423E-004  3.720869169156856E-004  3.767671941690137E-004  3.815063420629693E-004 
 3.863051010990531E-004  3.911642210931273E-004  3.960844612925773E-004  4.010665904949443E-004 
 4.061113871680523E-004  4.112196395716455E-004  4.163921458805545E-004  4.216297143094138E-004 
 4.269331632389464E-004  4.323033213438372E-004  4.377410277222160E-004  4.432471320267672E-004 
 4.488224945974911E-004  4.544679865961324E-004  4.601844901423014E-004  4.659728984513080E-004 
 4.718341159737266E-004  4.777690585367202E-004  4.837786534871389E-004  4.898638398364201E-004 
 4.960255684073118E-004  5.022648019824386E-004  5.085825154547411E-004  5.149796959798026E-004 
 5.214573431300950E-004  5.280164690511650E-004  5.346580986197818E-004  5.413832696040785E-004 
 5.481930328257037E-004  5.550884523240151E-004  5.620706055223386E-004  5.691405833963162E-004 
 5.762994906443752E-004  5.835484458603378E-004  5.908885817082044E-004  5.983210450991353E-004 
 6.058469973706564E-004  6.134676144681221E-004  6.211840871284581E-004  6.289976210662164E-004 
 6.369094371619723E-004  6.449207716530867E-004  6.530328763268737E-004  6.612470187161924E-004 
 6.695644822975029E-004  6.779865666914121E-004  6.865145878657409E-004  6.951498783411488E-004 
 7.038937873993410E-004  7.127476812938970E-004  7.217129434637519E-004  7.307909747493591E-004 
 7.399831936115770E-004  7.492910363533043E-004  7.587159573439058E-004  7.682594292464622E-004 
 7.779229432478741E-004  7.877080092918653E-004  7.976161563149127E-004  8.076489324851470E-004 
 8.178079054442560E-004  8.280946625524344E-004  8.385108111364084E-004  8.490579787405858E-004 
 8.597378133813634E-004  8.705519838046312E-004  8.815021797465211E-004  8.925901121974264E-004 
 9.038175136693513E-004  9.151861384666181E-004  9.266977629599800E-004  9.383541858641866E-004 
 9.501572285190308E-004  9.621087351739412E-004  9.742105732761478E-004  9.864646337624746E-004 
 9.988728313548058E-004  1.011437104859259E-003  1.024159417469131E-003  1.037041757071651E-003 
 1.050086136558590E-003  1.063294594140784E-003  1.076669193666603E-003  1.090212024944432E-003 
 1.103925204069213E-003  1.117810873753082E-003  1.131871203660179E-003  1.146108390745658E-003 
 1.160524659598967E-003  1.175122262791444E-003  1.189903481228286E-003  1.204870624504949E-003 
 1.220026031268018E-003  1.235372069580636E-003  1.250911137292509E-003  1.266645662414582E-003 
 1.282578103498419E-003  1.298710950020353E-003  1.315046722770475E-003  1.331587974246514E-003 
 1.348337289052664E-003  1.365297284303444E-003  1.382470610032614E-003  1.399859949607261E-003 
 1.417468020147071E-003  1.435297572948889E-003  1.453351393916617E-003  1.471632303996511E-003 
 1.490143159617963E-003  1.508886853139826E-003  1.527866313302344E-003  1.547084505684786E-003 
 1.566544433168809E-003  1.586249136407673E-003  1.606201694301351E-003  1.626405224477604E-003 
 1.646862883779130E-003  1.667577868756816E-003  1.688553416169208E-003  1.709792803488265E-003 
 1.731299349411468E-003  1.753076414380371E-003  1.775127401105684E-003  1.797455755098944E-003 
 1.820064965210891E-003  1.842958564176603E-003  1.866140129167494E-003  1.889613282350261E-003 
 1.913381691452843E-003  1.937449070337520E-003  1.961819179581208E-003  1.986495827063056E-003 
 2.011482868559441E-003  2.036784208346433E-003  2.062403799809848E-003  2.088345646062977E-003 
 2.114613800572073E-003  2.141212367789726E-003  2.168145503796176E-003  2.195417416948721E-003 
 2.223032368539276E-003  2.250994673460207E-003  2.279308700878553E-003  2.307978874918701E-003 
 2.337009675353674E-003  2.366405638305104E-003  2.396171356952007E-003  2.426311482248485E-003 
 2.456830723650432E-003  2.487733849851412E-003  2.519025689527764E-003  2.550711132093100E-003 
 2.582795128462290E-003  2.615282691825040E-003  2.648178898429222E-003  2.681488888374045E-003 
 2.715217866413205E-003  2.749371102768149E-003  2.783953933951539E-003  2.818971763601107E-003 
 2.854430063323981E-003  2.890334373551629E-003  2.926690304405579E-003  2.963503536573989E-003 
 3.000779822199285E-003  3.038524985776932E-003  3.076744925065532E-003  3.115445612008362E-003 
 3.154633093666492E-003  3.194313493163658E-003  3.234493010643012E-003  3.275177924235903E-003 
 3.316374591042861E-003  3.358089448126885E-003  3.400329013519266E-003  3.443099887238031E-003 
 3.486408752319216E-003  3.530262375861108E-003  3.574667610081602E-003  3.619631393388889E-003 
 3.665160751465591E-003  3.711262798366533E-003  3.757944737630347E-003  3.805213863405012E-003 
 3.853077561587603E-003  3.901543310978339E-003  3.950618684449164E-003  4.000311350127033E-003 
 4.050629072592057E-003  4.101579714090741E-003  4.153171235764481E-003  4.205411698893498E-003 
 4.258309266156448E-003  4.311872202905831E-003  4.366108878459491E-003  4.421027767408329E-003 
 4.476637450940470E-003  4.532946618182115E-003  4.589964067555202E-003  4.647698708152199E-003 
 4.706159561128161E-003  4.765355761110301E-003  4.825296557625311E-003  4.885991316544592E-003 
 4.947449521547709E-003  5.009680775604233E-003  5.072694802474215E-003  5.136501448227565E-003 
 5.201110682782495E-003  5.266532601463351E-003  5.332777426578030E-003  5.399855509015227E-003 
 5.467777329861804E-003  5.536553502040450E-003  5.606194771967997E-003  5.676712021234554E-003 
 5.748116268303786E-003  5.820418670234579E-003  5.893630524424329E-003  5.967763270374205E-003 
 6.042828491476586E-003  6.118837916824984E-003  6.195803423046765E-003  6.273737036158856E-003 
 6.352650933446865E-003  6.432557445367793E-003  6.513469057476694E-003  6.595398412377587E-003 
 6.678358311698857E-003  6.762361718093555E-003  6.847421757264837E-003  6.933551720016873E-003 
 7.020765064331589E-003  7.109075417471464E-003  7.198496578108845E-003  7.289042518482011E-003 
 7.380727386578355E-003  7.473565508345065E-003  7.567571389927541E-003  7.662759719936037E-003 
 7.759145371740779E-003  7.856743405795952E-003  7.955569071992958E-003  8.055637812043192E-003 
 8.156965261890881E-003  8.259567254156214E-003  8.363459820609223E-003  8.468659194674800E-003 
 8.575181813969166E-003  8.683044322868308E-003  8.792263575108690E-003  8.902856636420672E-003 
 9.014840787195106E-003  9.128233525183375E-003  9.243052568231491E-003  9.359315857048528E-003 
 9.477041558009897E-003  9.596248065995905E-003  9.716954007265943E-003  9.839178242368912E-003 
 9.962939869090215E-003  1.008825822543581E-002  1.021515289265387E-002  1.034364369829428E-002 
 1.047375071930687E-002  1.060549428517836E-002  1.073889498110894E-002  1.087397365122878E-002 
 1.101075140185490E-002  1.114924960478911E-002  1.128948990065739E-002  1.143149420229128E-002 
 1.157528469815184E-002  1.172088385579659E-002  1.186831442539014E-002  1.201759944325892E-002 
 1.216876223549070E-002  1.232182642157932E-002  1.247681591811527E-002  1.263375494252270E-002 
 1.279266801684348E-002  1.295357997156876E-002  1.311651594951887E-002  1.328150140977185E-002 
 1.344856213164154E-002  1.361772421870560E-002  1.378901410288430E-002  1.396245854857056E-002 
 1.413808465681187E-002  1.431591986954497E-002  1.449599197388365E-002  1.467832910646056E-002 
 1.486295975782366E-002  1.504991277688785E-002  1.523921737544271E-002  1.543090313271691E-002 
 1.562500000000000E-002  1.582153830532242E-002  1.602054875819421E-002  1.622206245440352E-002 
 1.642611088087539E-002  1.663272592059155E-002  1.684193985757237E-002  1.705378538192113E-002 
 1.726829559493200E-002  1.748550401426221E-002  1.770544457916916E-002  1.792815165581363E-002 
 1.815366004262943E-002  1.838200497576080E-002  1.861322213456811E-002  1.884734764720282E-002 
 1.908441809625266E-002  1.932447052445758E-002  1.956754244049789E-002  1.981367182485501E-002 
 2.006289713574596E-002  2.031525731513268E-002  2.057079179480659E-002  2.082954050255005E-002 
 2.109154386837506E-002  2.135684283084057E-002  2.162547884344924E-002  2.189749388112459E-002 
 2.217293044676966E-002  2.245183157790821E-002  2.273424085340939E-002  2.302020240029712E-002 
 2.330976090064486E-002  2.360296159855740E-002  2.389985030724031E-002  2.420047341615833E-002 
 2.450487789828389E-002  2.481311131743662E-002  2.512522183571537E-002  2.544125822102361E-002 
 2.576126985468950E-002  2.608530673918192E-002  2.641341950592331E-002  2.674565942320102E-002 
 2.708207840417807E-002  2.742272901500466E-002  2.776766448303186E-002  2.811693870512827E-002 
 2.847060625610172E-002  2.882872239722658E-002  2.919134308487847E-002  2.955852497927766E-002 
 2.993032545334214E-002  3.030680260165242E-002  3.068801524952888E-002  3.107402296222331E-002 
 3.146488605422620E-002  3.186066559869087E-002  3.226142343697637E-002  3.266722218831027E-002 
 3.307812525957304E-002  3.349419685520562E-002  3.391550198724130E-002  3.434210648546411E-002 
 3.477407700769483E-002  3.521148105020638E-002  3.565438695827038E-002  3.610286393683601E-002 
 3.655698206134363E-002  3.701681228867409E-002  3.748242646823591E-002  3.795389735319201E-002 
 3.843129861182736E-002  3.891470483905988E-002  3.940419156809609E-002  3.989983528223323E-002 
 4.040171342681011E-002  4.090990442130784E-002  4.142448767160325E-002  4.194554358237613E-002 
 4.247315356967258E-002  4.300740007362668E-002  4.354836657134143E-002  4.409613758993280E-002 
 4.465079871973696E-002  4.521243662768377E-002  4.578113907083914E-002  4.635699491011670E-002 
 4.694009412416300E-002  4.753052782341665E-002  4.812838826434424E-002  4.873376886385618E-002 
 4.934676421390264E-002  4.996747009625429E-002  5.059598349746817E-002  5.123240262404177E-002 
 5.187682691775861E-002  5.252935707122548E-002  5.319009504360653E-002  5.385914407655433E-002 
 5.453660871034127E-002  5.522259480019490E-002  5.591720953283719E-002  5.662056144323345E-002 
 5.733276043155073E-002  5.805391778032975E-002  5.878414617187366E-002  5.952355970585410E-002 
 6.027227391714021E-002  6.103040579385086E-002  6.179807379563402E-002  6.257539787217702E-002 
 6.336249948194807E-002  6.415950161117517E-002  6.496652879306267E-002  6.578370712724937E-002 
 6.661116429951285E-002  6.744902960171945E-002  6.829743395202745E-002  6.915650991534278E-002 
 7.002639172403226E-002  7.090721529889855E-002  7.179911827041703E-002  7.270224000024170E-002 
 7.361672160298038E-002  7.454270596824379E-002  7.548033778297318E-002  7.642976355404697E-002 
 7.739113163117364E-002  7.836459223007129E-002  7.935029745593877E-002  8.034840132722330E-002 
 8.135905979968516E-002  8.238243079076703E-002  8.341867420426843E-002  8.446795195533073E-002 
 8.553042799573758E-002  8.660626833953163E-002  8.769564108895554E-002  8.879871646071794E-002 
 8.991566681258954E-002  9.104666667033562E-002  9.219189275498466E-002  9.335152401044253E-002 
 9.452574163145235E-002  9.571472909190604E-002  9.691867217351362E-002  9.813775899483072E-002 
 9.937218004065358E-002  1.006221281917822E-001  1.018877987551580E-001  1.031693894943818E-001 
 1.044671006606136E-001  1.057811350238636E-001  1.071116979046747E-001  1.084589972062037E-001 
 1.098232434467078E-001  1.112046497924375E-001  1.126034320909448E-001  1.140198089048099E-001 
 1.154540015457914E-001  1.169062341094076E-001  1.183767335099508E-001  1.198657295159442E-001 
 1.213734547860434E-001  1.229001449053889E-001  1.244460384224184E-001  1.260113768861387E-001 
 1.275964048838695E-001  1.292013700794605E-001  1.308265232519885E-001  1.324721183349435E-001 
 1.341384124559046E-001  1.358256659767188E-001  1.375341425341814E-001  1.392641090812303E-001 
 1.410158359286583E-001  1.427895967873489E-001  1.445856688110451E-001  1.464043326396552E-001 
 1.482458724431020E-001  1.501105759657267E-001  1.519987345712482E-001  1.539106432882903E-001 
 1.558466008564801E-001  1.578069097731258E-001  1.597918763404845E-001  1.618018107136202E-001 
 1.638370269488683E-001  1.658978430529064E-001  1.679845810324430E-001  1.700975669445336E-001 
 1.722371309475251E-001  1.744036073526463E-001  1.765973346762436E-001  1.788186556926738E-001 
 1.810679174878657E-001  1.833454715135502E-001  1.856516736421781E-001  1.879868842225240E-001 
 1.903514681359918E-001  1.927457948536292E-001  1.951702384938565E-001  1.976251778809253E-001 
 2.001109966041100E-001  2.026280830776427E-001  2.051768306014067E-001  2.077576374223873E-001 
 2.103709067969017E-001  2.130170470536057E-001  2.156964716572984E-001  2.184095992735257E-001 
 2.211568538339970E-001  2.239386646028273E-001  2.267554662436082E-001  2.296076988873272E-001 
 2.324958082011383E-001  2.354202454579968E-001  2.383814676071747E-001  2.413799373456567E-001 
 2.444161231904402E-001  2.474904995517411E-001  2.506035468071199E-001  2.537557513765447E-001 
 2.569476057983916E-001  2.601796088064085E-001  2.634522654076414E-001  2.667660869613416E-001 
 2.701215912588698E-001  2.735193026045983E-001  2.769597518978382E-001  2.804434767157915E-001 
 2.839710213975479E-001  2.875429371291418E-001  2.911597820296721E-001  2.948221212385138E-001 
 2.985305270036198E-001  3.022855787709346E-001  3.060878632749378E-001  3.099379746303177E-001 
 3.138365144248073E-001  3.177840918131817E-001  3.217813236124381E-001  3.258288343981787E-001 
 3.299272566021973E-001  3.340772306113022E-001  3.382794048673762E-001  3.425344359686949E-001 
 3.468429887725260E-001  3.512057364990098E-001  3.556233608363552E-001  3.600965520473531E-001 
 3.646260090772300E-001  3.692124396628633E-001  3.738565604433617E-001  3.785590970720465E-001 
 3.833207843298340E-001  3.881423662400445E-001  3.930245961846625E-001  3.979682370220484E-001 
 4.029740612061416E-001  4.080428509071561E-001  4.131753981337938E-001  4.183725048570024E-001 
 4.236349831352798E-001  4.289636552415640E-001  4.343593537917139E-001  4.398229218746040E-001 
 4.453552131838643E-001  4.509570921512662E-001  4.566294340817960E-001  4.623731252904216E-001 
 4.681890632405785E-001  4.740781566844056E-001  4.800413258047334E-001  4.860795023588697E-001 
 4.921936298241870E-001  4.983846635455391E-001  5.046535708845425E-001  5.110013313707215E-001 
 5.174289368545674E-001  5.239373916625151E-001  5.305277127538680E-001  5.372009298797067E-001 
 5.439580857437820E-001  5.508002361654459E-001  5.577284502446236E-001  5.647438105288584E-001 
 5.718474131824693E-001  5.790403681578218E-001  5.863237993687657E-001  5.936988448662469E-001 
 6.011666570161271E-001  6.087284026792503E-001  6.163852633937587E-001  6.241384355597177E-001 
 6.319891306260537E-001  6.399385752798407E-001  6.479880116379815E-001  6.561386974412814E-001 
 6.643919062509810E-001  6.727489276477494E-001  6.812110674331798E-001  6.897796478338326E-001 
 6.984560077078259E-001  7.072415027540432E-001  7.161375057239612E-001  7.251454066361402E-001 
 7.342666129934273E-001  7.435025500028704E-001  7.528546607984190E-001  7.623244066664134E-001 
 7.719132672739092E-001  7.816227408998877E-001  7.914543446693542E-001  8.014096147904016E-001 
 8.114901067942420E-001  8.216973957782571E-001  8.320330766521202E-001  8.424987643869932E-001 
 8.530960942678787E-001  8.638267221491326E-001  8.746923247131899E-001  8.856945997325605E-001 
 8.968352663350975E-001  9.081160652726248E-001  9.195387591929290E-001  9.311051329151717E-001 
 9.428169937087821E-001  9.546761715758340E-001  9.666845195369982E-001  9.788439139210768E-001 
 9.911562546581772E-001  1.003623465576593E+000  1.016247494703391E+000  1.029030314568808E+000 
 1.041973922514456E+000  1.055080341005409E+000  1.068351617946222E+000  1.081789827000916E+000 
 1.095397067916998E+000  1.109175466853546E+000  1.123127176713423E+000  1.137254377479683E+000 
 1.151559276556185E+000  1.166044109112514E+000  1.180711138433229E+000  1.195562656271498E+000 
 1.210600983207203E+000  1.225828469009518E+000  1.241247493004083E+000  1.256860464444771E+000 
 1.272669822890127E+000  1.288678038584580E+000  1.304887612844395E+000  1.321301078448531E+000 
 1.337921000034385E+000  1.354749974498514E+000  1.371790631402421E+000  1.389045633383411E+000 
 1.406517676570653E+000  1.424209491006444E+000  1.442123841072779E+000  1.460263525923309E+000 
 1.478631379920690E+000  1.497230273079482E+000  1.516063111514585E+000  1.535132837895314E+000 
 1.554442431905218E+000  1.573994910707643E+000  1.593793329417183E+000  1.613840781577045E+000 
 1.634140399642410E+000  1.654695355469907E+000  1.675508860813196E+000  1.696584167824837E+000 
 1.717924569564431E+000  1.739533400513162E+000  1.761414037094833E+000  1.783569898203422E+000 
 1.806004445737307E+000  1.828721185140186E+000  1.851723665948802E+000  1.875015482347587E+000 
 1.898600273730234E+000  1.922481725268383E+000  1.946663568487429E+000  1.971149581849565E+000 
 1.995943591344204E+000  2.021049471085765E+000  2.046471143919041E+000  2.072212582032135E+000 
 2.098277807577118E+000  2.124670893298517E+000  2.151395963169668E+000  2.178457193037112E+000 
 2.205858811273078E+000  2.233605099436156E+000  2.261700392940330E+000  2.290149081732362E+000 
 2.318955610977759E+000  2.348124481755328E+000  2.377660251760463E+000  2.407567536017327E+000 
 2.437851007599924E+000  2.468515398362304E+000  2.499565499677917E+000  2.531006163188255E+000 
 2.562842301560968E+000  2.595078889257439E+000  2.627720963310085E+000  2.660773624109393E+000 
 2.694242036200849E+000  2.728131429091945E+000  2.762447098069257E+000  2.797194405025885E+000 
 2.832378779299240E+000  2.868005718519375E+000  2.904080789468036E+000  2.940609628948445E+000 
 2.977597944666094E+000  3.015051516120572E+000  3.052976195508609E+000  3.091377908638527E+000 
 3.130262655856122E+000  3.169636512982264E+000  3.209505632262240E+000  3.249876243327041E+000 
 3.290754654166793E+000  3.332147252116345E+000  3.374060504853345E+000  3.416500961408815E+000 
 3.459475253190424E+000  3.502990095018708E+000  3.547052286176220E+000  3.591668711469982E+000 
 3.636846342307223E+000  3.682592237784666E+000  3.728913545791560E+000  3.775817504126512E+000 
 3.823311441628443E+000  3.871402779321724E+000  3.920099031575697E+000  3.969407807278864E+000 
 4.019336811027734E+000  4.069893844330731E+000  4.121086806827176E+000  4.172923697521596E+000 
 4.225412616033640E+000  4.278561763863602E+000  4.332379445673968E+000  4.386874070587024E+000 
 4.442054153498765E+000  4.497928316409427E+000  4.554505289770628E+000  4.611793913849567E+000 
 4.669803140110321E+000  4.728542032612498E+000  4.788019769427572E+000  4.848245644072913E+000 
 4.909229066963972E+000  4.970979566884657E+000  5.033506792476196E+000  5.096820513744817E+000 
 5.160930623588264E+000  5.225847139341641E+000  5.291580204342618E+000  5.358140089516318E+000 
 5.425537194980236E+000  5.493782051669200E+000  5.562885322980923E+000  5.632857806442152E+000 
 5.703710435395764E+000  5.775454280709207E+000  5.848100552504253E+000  5.921660601908680E+000 
 5.996145922829879E+000  6.071568153750762E+000  6.147939079548382E+000  6.225270633335249E+000 
 6.303574898323986E+000  6.382864109715321E+000  6.463150656609825E+000  6.544447083943817E+000 
 6.626766094449446E+000  6.710120550639592E+000  6.794523476817635E+000  6.879988061112483E+000 
 6.966527657539337E+000  7.054155788086180E+000  7.142886144826702E+000  7.232732592059681E+000 
 7.323709168475266E+000  7.415830089348639E+000  7.509109748761084E+000  7.603562721849175E+000 
 7.699203767082137E+000  7.796047828567844E+000  7.894110038387961E+000  7.993405718962253E+000 
 8.093950385442843E+000  8.195759748138444E+000  8.298849714969080E+000  8.403236393951834E+000 
 8.508936095717647E+000  8.615965336059981E+000  8.724340838515406E+000  8.834079536976644E+000 
 8.945198578338623E+000  9.057715325177600E+000  9.171647358464201E+000  9.287012480310441E+000 
 9.403828716751285E+000  9.522114320561377E+000  9.641887774106932E+000  9.763167792233764E+000 
 9.885973325191470E+000  1.001032356159439E+001  1.013623793141998E+001  1.026373610904468E+001 
 1.039283801631815E+001  1.052356382567609E+001  1.065593396329212E+001  1.078996911226960E+001 
 1.092569021587322E+001  1.106311848080155E+001  1.120227538050062E+001  1.134318265851908E+001 
 1.148586233190584E+001  1.163033669465011E+001  1.177662832116502E+001  1.192476006981487E+001 
 1.207475508648672E+001  1.222663680820713E+001  1.238042896680409E+001  1.253615559261530E+001 