<UPF version="2.0.1">
  <PP_INFO>
    Generated using "atomic" code by A. Dal Corso  v.5.1.2
    Author: ADC
    Generation date: 30Jul2016
    Pseudopotential type: PAW
    Element: Ho
    Functional:  SLA  PW   PBX  PBC

    Suggested minimum cutoff for wavefunctions: 129. Ry
    Suggested minimum cutoff for charge density: 516. Ry
    The Pseudo was generated with a Scalar-Relativistic Calculation
    Local Potential by smoothing AE potential with Bessel fncs, cutoff radius:   1.7000
    Pseudopotential contains additional information for GIPAW reconstruction.

    Valence configuration: 
    nl pn  l   occ       Rcut    Rcut US       E pseu
    5S  1  0  2.00      1.300      1.500    -3.702667
    6S  2  0  2.00      1.300      1.500    -0.278464
    5P  2  1  6.00      1.300      1.800    -1.901227
    4D  3  2 10.00      1.000      1.100   -11.697721
    5D  4  2  0.00      1.000      1.100    -0.076617
    4F  4  3 11.00      1.100      1.300    -0.231109
    Generation configuration:
    5S  1  0  2.00      1.300      1.500    -3.702516
    6S  2  0  2.00      1.300      1.500    -0.278415
    5P  2  1  6.00      1.300      1.800    -1.901089
    6P  3  1  0.00      1.300      1.800     0.300000
    4D  3  2 10.00      1.000      1.100   -11.697544
    5D  4  2  0.00      1.000      1.100    -0.076553
    4F  4  3 11.00      1.100      1.300    -0.230939
    4F  4  3  0.00      1.100      1.300     1.000000

    Pseudization used: troullier-martins
<PP_INPUTFILE>
 &input
   title='Ho',
   zed=67.0,
   rel=1,
   config='[Xe] 4f11.0 5d0.0 6s2. 6p0.',
   iswitch=3,
   dft='PBE'
 /
 &inputp
   lpaw=.true.,
   pseudotype=3,
   file_pseudopw='Ho.pbe-spdfn-kjpaw_psl.1.0.0.UPF',
   author='ADC',
   lloc=-1,
   rcloc=1.7,
   which_augfun='PSQ',
   rmatch_augfun_nc=.true.,
   nlcc=.true.,
   new_core_ps=.true.,
   rcore=1.2,
   tm=.true.
 /
8
5S  1  0  2.00  0.00  1.30  1.50  0.0
6S  2  0  2.00  0.00  1.30  1.50  0.0
5P  2  1  6.00  0.00  1.30  1.80  0.0
6P  3  1  0.00  0.30  1.30  1.80  0.0
4D  3  2 10.00  0.00  1.00  1.10  0.0
5D  4  2  0.00  0.00  1.00  1.10  0.0
4F  4  3 11.00  0.00  1.10  1.30  0.0
4F  4  3  0.00  1.00  1.10  1.30  0.0
</PP_INPUTFILE>
  </PP_INFO>
  <!--                               -->
  <!-- END OF HUMAN READABLE SECTION -->
  <!--                               -->
  <PP_HEADER generated='Generated using "atomic" code by A. Dal Corso  v.5.1.2'
             author="ADC"
             date="30Jul2016"
             comment=""
             element="Ho"
             pseudo_type="PAW"
             relativistic="scalar"
             is_ultrasoft="T"
             is_paw="T"
             is_coulomb="F"
             has_so="F"
             has_wfc="T"
             has_gipaw="T"
             paw_as_gipaw="T"
             core_correction="T"
             functional=" SLA  PW   PBX  PBC"
             z_valence="3.100000000000000E+001"
             total_psenergy="-1.462572160899719E+003"
             wfc_cutoff="1.289286367405493E+002"
             rho_cutoff="5.157145469621973E+002"
             l_max="3"
             l_max_rho="6"
             l_local="-1"
             mesh_size="1265"
             number_of_wfc="6"
             number_of_proj="8"/>
  <PP_MESH dx="1.250000000000000E-002" mesh="1265" xmin="-7.000000000000000E+000" rmax="1.000000000000000E+002"
zmesh="6.700000000000000E+001">
    <PP_R type="real" size="1265" columns="4">
 1.361017859036591E-005  1.378137356222421E-005  1.395472190174003E-005  1.413025069494409E-005 
 1.430798736856746E-005  1.448795969432700E-005  1.467019579326476E-005  1.485472414014196E-005 
 1.504157356788822E-005  1.523077327210678E-005  1.542235281563637E-005  1.561634213317042E-005 
 1.581277153593448E-005  1.601167171642234E-005  1.621307375319191E-005  1.641700911572117E-005 
 1.662350966932542E-005  1.683260768013630E-005  1.704433582014340E-005  1.725872717229937E-005 
 1.747581523568917E-005  1.769563393076437E-005  1.791821760464330E-005  1.814360103647783E-005 
 1.837181944288778E-005  1.860290848346342E-005  1.883690426633753E-005  1.907384335382723E-005 
 1.931376276814698E-005  1.955669999719343E-005  1.980269300040286E-005  2.005178021468249E-005 
 2.030400056041633E-005  2.055939344754652E-005  2.081799878173133E-005  2.107985697058032E-005 
 2.134500892996828E-005  2.161349609042829E-005  2.188536040362542E-005  2.216064434891174E-005 
 2.243939093996377E-005  2.272164373150346E-005  2.300744682610373E-005  2.329684488107959E-005 
 2.358988311546592E-005  2.388660731708305E-005  2.418706384969115E-005  2.449129966023472E-005 
 2.479936228617812E-005  2.511129986293345E-005  2.542716113138170E-005  2.574699544548869E-005 
 2.607085278001671E-005  2.639878373833314E-005  2.673083956031746E-005  2.706707213036739E-005 
 2.740753398550607E-005  2.775227832359106E-005  2.810135901162653E-005  2.845483059418025E-005 
 2.881274830190611E-005  2.917516806017414E-005  2.954214649780891E-005  2.991374095593790E-005 
 3.029000949695125E-005  3.067101091357401E-005  3.105680473805268E-005  3.144745125145723E-005 
 3.184301149310012E-005  3.224354727007395E-005  3.264912116690873E-005  3.305979655535100E-005 
 3.347563760426573E-005  3.389670928966279E-005  3.432307740484979E-005  3.475480857071215E-005 
 3.519197024612288E-005  3.563463073848318E-005  3.608285921439557E-005  3.653672571047139E-005 
 3.699630114427401E-005  3.746165732539997E-005  3.793286696669938E-005  3.841000369563732E-005 
 3.889314206579849E-005  3.938235756853614E-005  3.987772664476792E-005  4.037932669691980E-005 
 4.088723610102042E-005  4.140153421894759E-005  4.192230141082855E-005  4.244961904759653E-005 
 4.298356952370512E-005  4.352423627000250E-005  4.407170376676786E-005  4.462605755691135E-005 
 4.518738425934053E-005  4.575577158249467E-005  4.633130833804938E-005  4.691408445479374E-005 
 4.750419099268160E-005  4.810172015706010E-005  4.870676531307684E-005  4.931942100026839E-005 
 4.993978294733242E-005  5.056794808708524E-005  5.120401457160798E-005  5.184808178758289E-005 
 5.250025037182281E-005  5.316062222699597E-005  5.382930053754822E-005  5.450638978582602E-005 
 5.519199576840197E-005  5.588622561260568E-005  5.658918779326280E-005  5.730099214964423E-005 
 5.802174990262881E-005  5.875157367208184E-005  5.949057749445209E-005  6.023887684059043E-005 
 6.099658863379204E-005  6.176383126806622E-005  6.254072462663552E-005  6.332739010066776E-005 
 6.412395060824388E-005  6.493053061356372E-005  6.574725614639413E-005  6.657425482176122E-005 
 6.741165585989054E-005  6.825959010639811E-005  6.911819005273501E-005  6.998758985688971E-005 
 7.086792536435041E-005  7.175933412933113E-005  7.266195543626513E-005  7.357593032156794E-005 
 7.450140159567488E-005  7.543851386535544E-005  7.638741355630823E-005  7.734824893604066E-005 
 7.832117013703559E-005  7.930632918021008E-005  8.030387999866897E-005  8.131397846175709E-005 
 8.233678239941449E-005  8.337245162683730E-005  8.442114796944937E-005  8.548303528818784E-005 
 8.655827950510659E-005  8.764704862930227E-005  8.874951278316558E-005  8.986584422896356E-005 
 9.099621739575578E-005  9.214080890664927E-005  9.329979760639643E-005  9.447336458933950E-005 
 9.566169322770722E-005  9.686496920026697E-005  9.808338052133751E-005  9.931711757016678E-005 
 1.005663731206786E-004  1.018313423715944E-004  1.031122229769333E-004  1.044092150768957E-004 
 1.057225213291362E-004  1.070523469404283E-004  1.083988996987297E-004  1.097623900056483E-004 
 1.111430309093185E-004  1.125410381376907E-004  1.139566301322382E-004  1.153900280820906E-004 
 1.168414559585936E-004  1.183111405503059E-004  1.197993114984352E-004  1.213062013327196E-004 
 1.228320455077616E-004  1.243770824398181E-004  1.259415535440527E-004  1.275257032722589E-004 
 1.291297791510542E-004  1.307540318205586E-004  1.323987150735561E-004  1.340640858951510E-004 
 1.357504045029227E-004  1.374579343875842E-004  1.391869423541541E-004  1.409376985636449E-004 
 1.427104765752762E-004  1.445055533892193E-004  1.463232094898780E-004  1.481637288897166E-004 
 1.500273991736356E-004  1.519145115439085E-004  1.538253608656828E-004  1.557602457130523E-004 
 1.577194684157113E-004  1.597033351061930E-004  1.617121557677037E-004  1.637462442825595E-004 
 1.658059184812285E-004  1.678915001919950E-004  1.700033152912444E-004  1.721416937543824E-004 
 1.743069697073948E-004  1.764994814790540E-004  1.787195716537854E-004  1.809675871251955E-004 
 1.832438791502752E-004  1.855488034042850E-004  1.878827200363283E-004  1.902459937256279E-004 
 1.926389937385056E-004  1.950620939860818E-004  1.975156730827006E-004  2.000001144050870E-004 
 2.025158061522527E-004  2.050631414061514E-004  2.076425181930988E-004  2.102543395459662E-004 
 2.128990135671531E-004  2.155769534923564E-004  2.182885777551376E-004  2.210343100523045E-004 
 2.238145794101152E-004  2.266298202513126E-004  2.294804724630065E-004  2.323669814654043E-004 
 2.352897982814102E-004  2.382493796070988E-004  2.412461878830728E-004  2.442806913667228E-004 
 2.473533642053919E-004  2.504646865104621E-004  2.536151444323744E-004  2.568052302365878E-004 
 2.600354423805002E-004  2.633062855913308E-004  2.666182709449856E-004  2.699719159459151E-004 
 2.733677446079728E-004  2.768062875362968E-004  2.802880820102151E-004  2.838136720671978E-004 
 2.873836085878646E-004  2.909984493820596E-004  2.946587592760116E-004  2.983651102005885E-004 
 3.021180812806626E-004  3.059182589256009E-004  3.097662369208917E-004  3.136626165209258E-004 
 3.176080065429429E-004  3.216030234621608E-004  3.256482915081011E-004  3.297444427621260E-004 
 3.338921172562030E-004  3.380919630729100E-004  3.423446364467005E-004  3.466508018664414E-004 
 3.510111321792404E-004  3.554263086955803E-004  3.598970212957743E-004  3.644239685377617E-004 
 3.690078577662597E-004  3.736494052232858E-004  3.783493361600738E-004  3.831083849503945E-004 
 3.879272952053037E-004  3.928068198893331E-004  3.977477214381416E-004  4.027507718776490E-004 
 4.078167529446652E-004  4.129464562090385E-004  4.181406831973406E-004  4.234002455181060E-004 
 4.287259649886483E-004  4.341186737634698E-004  4.395792144642879E-004  4.451084403116971E-004 
 4.507072152584851E-004  4.563764141246283E-004  4.621169227339835E-004  4.679296380526998E-004 
 4.738154683293725E-004  4.797753332369563E-004  4.858101640164691E-004  4.919209036224980E-004 
 4.981085068705385E-004  5.043739405861874E-004  5.107181837562094E-004  5.171422276815078E-004 
 5.236470761320155E-004  5.302337455035368E-004  5.369032649765622E-004  5.436566766770781E-004 
 5.504950358394032E-004  5.574194109710690E-004  5.644308840197774E-004  5.715305505424576E-004 
 5.787195198764479E-004  5.859989153128331E-004  5.933698742719600E-004  6.008335484811619E-004 
 6.083911041547198E-004  6.160437221760829E-004  6.237925982823868E-004  6.316389432512883E-004 
 6.395839830901520E-004  6.476289592276175E-004  6.557751287075734E-004  6.640237643855749E-004 
 6.723761551277287E-004  6.808336060120807E-004  6.893974385325392E-004  6.980689908053579E-004 
 7.068496177782228E-004  7.157406914419623E-004  7.247436010449250E-004  7.338597533100535E-004 
 7.430905726546858E-004  7.524375014131250E-004  7.619020000620062E-004  7.714855474484987E-004 
 7.811896410213788E-004  7.910157970650119E-004  8.009655509362707E-004  8.110404573044402E-004 
 8.212420903941382E-004  8.315720442312895E-004  8.420319328921993E-004  8.526233907557506E-004 
 8.633480727587834E-004  8.742076546546800E-004  8.852038332752048E-004  8.963383267956410E-004 
 9.076128750032534E-004  9.190292395691379E-004  9.305892043234845E-004  9.422945755343041E-004 
 9.541471821896652E-004  9.661488762834709E-004  9.783015331048413E-004  9.906070515311289E-004 
 1.003067354324623E-003  1.015684388432988E-003  1.028460125293471E-003  1.041396561140950E-003 
 1.054495717319845E-003  1.067759640599958E-003  1.081190403496290E-003  1.094790104592868E-003 
 1.108560868870655E-003  1.122504848039589E-003  1.136624220874781E-003  1.150921193556966E-003 
 1.165398000017211E-003  1.180056902285980E-003  1.194900190846576E-003  1.209930184993033E-003 
 1.225149233192519E-003  1.240559713452277E-003  1.256164033691200E-003  1.271964632116073E-003 
 1.287963977602545E-003  1.304164570080901E-003  1.320568940926676E-003  1.337179653356190E-003 
 1.353999302827053E-003  1.371030517443715E-003  1.388275958368112E-003  1.405738320235473E-003 
 1.423420331575368E-003  1.441324755238043E-003  1.459454388826120E-003  1.477812065131736E-003 
 1.496400652579160E-003  1.515223055673001E-003  1.534282215452036E-003  1.553581109948756E-003 
 1.573122754654692E-003  1.592910202991585E-003  1.612946546788497E-003  1.633234916764910E-003 
 1.653778483019910E-003  1.674580455527518E-003  1.695644084638265E-003  1.716972661587051E-003 
 1.738569519007418E-003  1.760438031452277E-003  1.782581615921188E-003  1.805003732394279E-003 
 1.827707884372865E-003  1.850697619426885E-003  1.873976529749214E-003  1.897548252716949E-003 
 1.921416471459765E-003  1.945584915435398E-003  1.970057361012392E-003  1.994837632060157E-003 
 2.019929600546458E-003  2.045337187142425E-003  2.071064361835153E-003  2.097115144548032E-003 
 2.123493605768861E-003  2.150203867185870E-003  2.177250102331752E-003  2.204636537235774E-003 
 2.232367451084106E-003  2.260447176888458E-003  2.288880102163111E-003  2.317670669610493E-003 
 2.346823377815338E-003  2.376342781947617E-003  2.406233494474282E-003  2.436500185879976E-003 
 2.467147585396814E-003  2.498180481743322E-003  2.529603723872689E-003  2.561422221730431E-003 
 2.593640947021569E-003  2.626264933987485E-003  2.659299280192515E-003  2.692749147320460E-003 
 2.726619761981116E-003  2.760916416526930E-003  2.795644469879956E-003  2.830809348369184E-003 
 2.866416546578421E-003  2.902471628204831E-003  2.938980226928269E-003  2.975948047291570E-003 
 3.013380865591872E-003  3.051284530783196E-003  3.089664965390340E-003  3.128528166434296E-003 
 3.167880206369300E-003  3.207727234031652E-003  3.248075475600493E-003  3.288931235570656E-003 
 3.330300897737758E-003  3.372190926195685E-003  3.414607866346605E-003  3.457558345923715E-003 
 3.501049076026833E-003  3.545086852171017E-003  3.589678555348391E-003  3.634831153103295E-003 
 3.680551700620994E-003  3.726847341830056E-003  3.773725310518604E-003  3.821192931464628E-003 
 3.869257621580472E-003  3.917926891071752E-003  3.967208344610848E-003  4.017109682525132E-003 
 4.067638702000189E-003  4.118803298298107E-003  4.170611465991156E-003  4.223071300210941E-003 
 4.276190997913285E-003  4.329978859159036E-003  4.384443288410939E-003  4.439592795846876E-003 
 4.495435998689587E-003  4.551981622553124E-003  4.609238502806267E-003  4.667215585953043E-003 
 4.725921931030648E-003  4.785366711024939E-003  4.845559214303728E-003  4.906508846068122E-003 
 4.968225129822084E-003  5.030717708860515E-003  5.093996347776029E-003  5.158070933984694E-003 
 5.222951479270977E-003  5.288648121352072E-003  5.355171125461967E-003  5.422530885955395E-003 
 5.490737927931975E-003  5.559802908880792E-003  5.629736620345628E-003  5.700549989611180E-003 
 5.772254081410470E-003  5.844860099653716E-003  5.918379389178999E-003  5.992823437524877E-003 
 6.068203876725363E-003  6.144532485127445E-003  6.221821189231469E-003  6.300082065554709E-003 
 6.379327342518310E-003  6.459569402358023E-003  6.540820783058949E-003  6.623094180314625E-003 
 6.706402449510772E-003  6.790758607733936E-003  6.876175835805464E-003  6.962667480341025E-003 
 7.050247055836040E-003  7.138928246777375E-003  7.228724909781532E-003  7.319651075759797E-003 
 7.411720952110595E-003  7.504948924939417E-003  7.599349561306706E-003  7.694937611503944E-003 
 7.791728011358454E-003  7.889735884567130E-003  7.988976545059557E-003  8.089465499390854E-003 
 8.191218449164575E-003  8.294251293486144E-003  8.398580131447106E-003  8.504221264640642E-003 
 8.611191199708757E-003  8.719506650921433E-003  8.829184542788290E-003  8.940242012703071E-003 
 9.052696413621395E-003  9.166565316772207E-003  9.281866514403289E-003  9.398618022561348E-003 
 9.516838083907072E-003  9.636545170565553E-003  9.757757987012648E-003  9.880495472997526E-003 
 1.000477680650208E-002  1.013062140673754E-002  1.025804893717869E-002  1.038707930863645E-002 
 1.051773268236886E-002  1.065002947323139E-002  1.078399035286676E-002  1.091963625293495E-002 
 1.105698836838385E-002  1.119606816076093E-002  1.133689736156670E-002  1.147949797565031E-002 
 1.162389228464783E-002  1.177010285046383E-002  1.191815251879668E-002  1.206806442270825E-002 
 1.221986198623854E-002  1.237356892806568E-002  1.252920926521205E-002  1.268680731679699E-002 
 1.284638770783669E-002  1.300797537309192E-002  1.317159556096411E-002  1.333727383744053E-002 
 1.350503609008895E-002  1.367490853210266E-002  1.384691770639632E-002  1.402109048975337E-002 
 1.419745409702558E-002  1.437603608538541E-002  1.455686435863184E-002  1.473996717155048E-002 
 1.492537313432836E-002  1.511311121702440E-002  1.530321075409596E-002  1.549570144898247E-002 
 1.569061337874664E-002  1.588797699877402E-002  1.608782314753182E-002  1.629018305138734E-002 
 1.649508832948729E-002  1.670257099869823E-002  1.691266347860935E-002  1.712539859659810E-002 
 1.734080959295945E-002  1.755893012609987E-002  1.777979427779640E-002  1.800343655852210E-002 
 1.822989191283836E-002  1.845919572485500E-002  1.869138382375918E-002  1.892649248941373E-002 
 1.916455845802599E-002  1.940561892788793E-002  1.964971156518839E-002  1.989687450989856E-002 
 2.014714638173140E-002  2.040056628617606E-002  2.065717382060824E-002  2.091700908047722E-002 
 2.118011266557102E-002  2.144652568636008E-002  2.171628977042091E-002  2.198944706894053E-002 
 2.226604026330255E-002  2.254611257175632E-002  2.282970775616985E-002  2.311687012886766E-002 
 2.340764455955476E-002  2.370207648232752E-002  2.400021190277289E-002  2.430209740515688E-002 
 2.460778015970341E-002  2.491730792996482E-002  2.523072908028495E-002  2.554809258335620E-002 
 2.586944802787159E-002  2.619484562627311E-002  2.652433622259759E-002  2.685797130042103E-002 
 2.719580299090314E-002  2.753788408093285E-002  2.788426802137645E-002  2.823500893542941E-002 
 2.859016162707308E-002  2.894978158963813E-002  2.931392501447535E-002  2.968264879973570E-002 
 3.005601055926085E-002  3.043406863158531E-002  3.081688208905205E-002  3.120451074704264E-002 
 3.159701517332351E-002  3.199445669750985E-002  3.239689742064841E-002  3.280440022492094E-002 
 3.321702878346969E-002  3.363484757034640E-002  3.405792187058663E-002  3.448631779041052E-002 
 3.492010226755212E-002  3.535934308171853E-002  3.580410886518057E-002  3.625446911349685E-002 
 3.671049419637240E-002  3.717225536865421E-002  3.763982478146492E-002  3.811327549347652E-002 
 3.859268148232607E-002  3.907811765617465E-002  3.956965986541205E-002  4.006738491450854E-002 
 4.057137057401560E-002  4.108169559271801E-002  4.159843970993808E-002  4.212168366799551E-002 
 4.265150922482337E-002  4.318799916674270E-002  4.373123732139858E-002  4.428130857085774E-002 
 4.483829886487212E-002  4.540229523430844E-002  4.597338580474673E-002  4.655165981025067E-002 
 4.713720760730999E-002  4.773012068895932E-002  4.833049169907408E-002  4.893841444684587E-002 
 4.955398392144107E-002  5.017729630684224E-002  5.080844899687788E-002  5.144754061043996E-002 
 5.209467100689315E-002  5.274994130167870E-002  5.341345388211314E-002  5.408531242338718E-002 
 5.476562190476487E-002  5.545448862598663E-002  5.615202022387932E-002  5.685832568917407E-002 
 5.757351538353691E-002  5.829770105681276E-002  5.903099586448623E-002  5.977351438536312E-002 
 6.052537263947278E-002  6.128668810619718E-002  6.205757974262702E-002  6.283816800214866E-002 
 6.362857485326601E-002  6.442892379865738E-002  6.523933989447397E-002  6.605994976987967E-002 
 6.689088164683678E-002  6.773226536014190E-002  6.858423237771179E-002  6.944691582112640E-002 
 7.032045048642903E-002  7.120497286518809E-002  7.210062116582512E-002  7.300753533520905E-002 
 7.392585708052407E-002  7.485572989141139E-002  7.579729906238927E-002  7.675071171555659E-002 
 7.771611682357986E-002  7.869366523297149E-002  7.968350968765940E-002  8.068580485285323E-002 
 8.170070733921202E-002  8.272837572731379E-002  8.376897059243514E-002  8.482265452964101E-002 
 8.588959217919001E-002  8.696995025226088E-002  8.806389755700027E-002  8.917160502490032E-002 
 9.029324573750672E-002  9.142899495346249E-002  9.257903013589361E-002  9.374353098013681E-002 
 9.492267944181834E-002  9.611665976528454E-002  9.732565851238974E-002  9.854986459164827E-002 
 9.978946928775033E-002  1.010446662914518E-001  1.023156517298385E-001  1.036026241969707E-001 
 1.049057847849149E-001  1.062253371151641E-001  1.075614873704547E-001  1.089144443269826E-001 
 1.102844193870246E-001  1.116716266119714E-001  1.130762827557739E-001  1.144986072988124E-001 
 1.159388224821907E-001  1.173971533424611E-001  1.188738277467878E-001  1.203690764285504E-001 
 1.218831330233977E-001  1.234162341057534E-001  1.249686192257801E-001  1.265405309468117E-001 
 1.281322148832522E-001  1.297439197389552E-001  1.313758973460838E-001  1.330284027044588E-001 
 1.347016940214049E-001  1.363960327520944E-001  1.381116836404013E-001  1.398489147602677E-001 
 1.416079975575899E-001  1.433892068926345E-001  1.451928210829834E-001  1.470191219470236E-001 
 1.488683948479810E-001  1.507409287385083E-001  1.526370162058360E-001  1.545569535174880E-001 
 1.565010406675757E-001  1.584695814236718E-001  1.604628833742739E-001  1.624812579768679E-001 
 1.645250206065911E-001  1.665944906055129E-001  1.686899913325312E-001  1.708118502138973E-001 
 1.729603987943791E-001  1.751359727890629E-001  1.773389121358119E-001  1.795695610483812E-001 
 1.818282680702011E-001  1.841153861288398E-001  1.864312725911465E-001  1.887762893190929E-001 
 1.911508027263140E-001  1.935551838353602E-001  1.959898083356721E-001  1.984550566422804E-001 
 2.009513139552494E-001  2.034789703198621E-001  2.060384206875686E-001  2.086300649776962E-001 
 2.112543081399374E-001  2.139115602176261E-001  2.166022364118048E-001  2.193267571461036E-001 
 2.220855481324306E-001  2.248790404374894E-001  2.277076705501370E-001  2.305718804495825E-001 
 2.334721176744503E-001  2.364088353927079E-001  2.393824924724728E-001  2.423935535537143E-001 
 2.454424891208517E-001  2.485297755762708E-001  2.516558953147619E-001  2.548213367988935E-001 
 2.580265946353383E-001  2.612721696521536E-001  2.645585689770394E-001  2.678863061165770E-001 
 2.712559010364637E-001  2.746678802427623E-001  2.781227768641644E-001  2.816211307352968E-001 
 2.851634884810696E-001  2.887504036020868E-001  2.923824365611346E-001  2.960601548707512E-001 
 2.997841331819055E-001  3.035549533737855E-001  3.073732046447170E-001  3.112394836042304E-001 
 3.151543943662780E-001  3.191185486436320E-001  3.231325658434638E-001  3.271970731641264E-001 
 3.313127056931592E-001  3.354801065065168E-001  3.396999267690557E-001  3.439728258362776E-001 
 3.482994713573541E-001  3.526805393794515E-001  3.571167144533605E-001  3.616086897404624E-001 
 3.661571671210354E-001  3.707628573039231E-001  3.754264799375880E-001  3.801487637225537E-001 
 3.849304465252696E-001  3.897722754934029E-001  3.946750071725791E-001  3.996394076245994E-001 
 4.046662525471330E-001  4.097563273949268E-001  4.149104275025327E-001  4.201293582085769E-001 
 4.254139349816017E-001  4.307649835474781E-001  4.361833400184320E-001  4.416698510236863E-001 
 4.472253738417467E-001  4.528507765343576E-001  4.585469380821334E-001  4.643147485219054E-001 
 4.701551090857906E-001  4.760689323420075E-001  4.820571423374735E-001  4.881206747421817E-001 
 4.942604769954076E-001  5.004775084537457E-001  5.067727405410083E-001  5.131471569000183E-001 
 5.196017535462992E-001  5.261375390237095E-001  5.327555345620285E-001  5.394567742365214E-001 
 5.462423051295230E-001  5.531131874940387E-001  5.600704949194180E-001  5.671153144991016E-001 
 5.742487470004797E-001  5.814719070368959E-001  5.887859232417993E-001  5.961919384451034E-001 
 6.036911098517528E-001  6.112846092225344E-001  6.189736230571763E-001  6.267593527797315E-001 
 6.346430149263101E-001  6.426258413351637E-001  6.507090793391569E-001  6.588939919606759E-001 
 6.671818581089680E-001  6.755739727799815E-001  6.840716472587092E-001  6.926762093240743E-001 
 7.013890034564082E-001  7.102113910475180E-001  7.191447506134152E-001  7.281904780097084E-001 
 7.373499866497043E-001  7.466247077252659E-001  7.560160904304278E-001  7.655256021878464E-001 
 7.751547288780820E-001  7.849049750717679E-001  7.947778642647119E-001  8.047749391159338E-001 
 8.148977616887200E-001  8.251479136946939E-001  8.355269967409575E-001  8.460366325803563E-001 
 8.566784633648692E-001  8.674541519022088E-001  8.783653819156337E-001  8.894138583070297E-001 
 9.006013074233142E-001  9.119294773261698E-001  9.234001380651923E-001  9.350150819544615E-001 
 9.467761238525872E-001  9.586851014462978E-001  9.707438755375674E-001  9.829543303343835E-001 
 9.953183737451524E-001  1.007837937676808E+000  1.020514978336690E+000  1.033351476538189E+000 
 1.046349438010266E+000  1.059510893710850E+000  1.072837900144165E+000  1.086332539682086E+000 
 1.099996920889490E+000  1.113833178853745E+000  1.127843475518309E+000  1.142030000020536E+000 
 1.156394969033746E+000  1.170940627113569E+000  1.185669247048677E+000  1.200583130215900E+000 
 1.215684606939823E+000  1.230976036856912E+000  1.246459809284198E+000  1.262138343592627E+000 
 1.278014089585084E+000  1.294089527879178E+000  1.310367170294850E+000  1.326849560246841E+000 
 1.343539273142117E+000  1.360438916782275E+000  1.377551131771013E+000  1.394878591926743E+000 
 1.412424004700360E+000  1.430190111598312E+000  1.448179688610947E+000  1.466395546646270E+000 
 1.484840531969163E+000  1.503517526646106E+000  1.522429448995518E+000  1.541579254043744E+000 
 1.560969933986780E+000  1.580604518657821E+000  1.600486076000665E+000  1.620617712549098E+000 
 1.641002573912293E+000  1.661643845266304E+000  1.682544751851781E+000  1.703708559477896E+000 
 1.725138575032652E+000  1.746838146999581E+000  1.768810665980945E+000  1.791059565227546E+000 
 1.813588321175149E+000  1.836400453987710E+000  1.859499528107395E+000  1.882889152811525E+000 
 1.906572982776553E+000  1.930554718649089E+000  1.954838107624158E+000  1.979426944030696E+000 
 2.004325069924411E+000  2.029536375688136E+000  2.055064800639682E+000  2.080914333647391E+000 
 2.107089013753388E+000  2.133592930804687E+000  2.160430226092256E+000  2.187605092998077E+000 
 2.215121777650397E+000  2.242984579587179E+000  2.271197852427905E+000  2.299766004553864E+000 
 2.328693499796942E+000  2.357984858137126E+000  2.387644656408757E+000  2.417677529015647E+000 
 2.448088168655254E+000  2.478881327051882E+000  2.510061815699186E+000  2.541634506611957E+000 
 2.573604333087378E+000  2.605976290475887E+000  2.638755436961679E+000  2.671946894353085E+000 
 2.705555848882856E+000  2.739587552018507E+000  2.774047321282900E+000  2.808940541085082E+000 
 2.844272663561642E+000  2.880049209428606E+000  2.916275768844044E+000  2.952958002281578E+000 
 2.990101641414804E+000  3.027712490012909E+000  3.065796424847513E+000  3.104359396610905E+000 
 3.143407430845892E+000  3.182946628887255E+000  3.222983168815136E+000  3.263523306420361E+000 
 3.304573376181898E+000  3.346139792256676E+000  3.388229049481763E+000  3.430847724389237E+000 
 3.474002476233765E+000  3.517700048033114E+000  3.561947267621789E+000  3.606751048717862E+000 
 3.652118392003289E+000  3.698056386217766E+000  3.744572209266337E+000  3.791673129341004E+000 
 3.839366506056343E+000  3.887659791599504E+000  3.936560531894616E+000  3.986076367781823E+000 
 4.036215036211239E+000  4.086984371451799E+000  4.138392306315432E+000  4.190446873396560E+000 
 4.243156206327178E+000  4.296528541047811E+000  4.350572217094331E+000  4.405295678901079E+000 
 4.460707477120307E+000  4.516816269958206E+000  4.573630824527830E+000  4.631160018218901E+000 
 4.689412840084988E+000  4.748398392248030E+000  4.808125891320545E+000  4.868604669845796E+000 
 4.929844177755954E+000  4.991853983848732E+000  5.054643777282501E+000  5.118223369090215E+000 
 5.182602693712464E+000  5.247791810549684E+000  5.313800905534016E+000  5.380640292720861E+000 
 5.448320415900431E+000  5.516851850229690E+000  5.586245303884660E+000  5.656511619733664E+000 
 5.727661777031526E+000  5.799706893135057E+000  5.872658225240245E+000  5.946527172141134E+000 
 6.021325276010971E+000  6.097064224205679E+000  6.173755851089982E+000  6.251412139886631E+000 
 6.330045224548725E+000  6.409667391655730E+000  6.490291082333263E+000  6.571928894196999E+000 
 6.654593583321158E+000  6.738298066231575E+000  6.823055421924014E+000  6.908878893907755E+000 
 6.995781892274881E+000  7.083777995795715E+000  7.172880954040438E+000  7.263104689527570E+000 
 7.354463299899355E+000  7.446971060124508E+000  7.540642424728798E+000  7.635492030053496E+000 
 7.731534696542417E+000  7.828785431057619E+000  7.927259429224196E+000  8.026972077804738E+000 
 8.127938957103424E+000  8.230175843400579E+000  8.333698711417702E+000  8.438523736813510E+000 
 8.544667298711520E+000  8.652145982259201E+000  8.760976581219534E+000  8.871176100595049E+000 
 8.982761759284809E+000  9.095750992775047E+000  9.210161455863338E+000  9.326011025417326E+000 
 9.443317803167972E+000  9.562100118537924E+000  9.682376531505657E+000  9.804165835505369E+000 
 9.927487060363609E+000  1.005235947527268E+001  1.017880259180142E+001  1.030683616694409E+001 
 1.043648020620725E+001  1.056775496673581E+001  1.070068096047821E+001  1.083527895739136E+001 
 1.097156998868618E+001  1.110957535011354E+001  1.124931660529196E+001  1.139081558907689E+001 
 1.153409441097239E+001  1.167917545858592E+001  1.182608140112630E+001  1.197483519294595E+001 