<UPF version="2.0.1">
  <PP_INFO>
    Generated using "atomic" code by A. Dal Corso  v.5.1.2
    Author: ADC
    Generation date: 30Jul2016
    Pseudopotential type: USPP
    Element: Kr
    Functional: PBE

    Suggested minimum cutoff for wavefunctions:  54. Ry
    Suggested minimum cutoff for charge density: 252. Ry
    The Pseudo was generated with a Scalar-Relativistic Calculation
    Local Potential by smoothing AE potential with Bessel fncs, cutoff radius:   2.0000
    Pseudopotential contains additional information for GIPAW reconstruction.

    Valence configuration: 
    nl pn  l   occ       Rcut    Rcut US       E pseu
    4S  1  0  2.00      1.300      1.500    -1.694059
    4P  2  1  6.00      1.300      1.600    -0.679671
    3D  3  2 10.00      1.300      1.500    -5.982931
    Generation configuration:
    4S  1  0  2.00      1.300      1.500    -1.694058
    4S  1  0  0.00      1.300      1.500     6.000000
    4P  2  1  6.00      1.300      1.600    -0.679668
    4P  2  1  0.00      1.300      1.600     6.000000
    3D  3  2 10.00      1.300      1.500    -5.982931
    3D  3  2  0.00      1.300      1.500     0.050000

    Pseudization used: troullier-martins
<PP_INPUTFILE>
 &input
   title='Kr',
   zed=36.,
   rel=1,
   config='[Ar] 4s2 4p6 3d10',
   iswitch=3,
   dft='PBE'
 /
 &inputp
   lpaw=.false.,
   pseudotype=3,
   file_pseudopw='Kr.pbe-dn-rrkjus_psl.1.0.0.UPF',
   author='ADC',
   lloc=-1,
   rcloc=2.0,
   which_augfun='PSQ',
   rmatch_augfun_nc=.true.,
   nlcc=.true.,
   new_core_ps=.true.,
   rcore=1.8,
   tm=.true.
 /
6
4S  1  0  2.00  0.00  1.30  1.50  0.0
4S  1  0  0.00  6.00  1.30  1.50  0.0
4P  2  1  6.00  0.00  1.30  1.60  0.0
4P  2  1  0.00  6.00  1.30  1.60  0.0
3D  3  2 10.00  0.00  1.30  1.50  0.0
3D  3  2  0.00  0.05  1.30  1.50  0.0
</PP_INPUTFILE>
  </PP_INFO>
  <!--                               -->
  <!-- END OF HUMAN READABLE SECTION -->
  <!--                               -->
  <PP_HEADER generated='Generated using "atomic" code by A. Dal Corso  v.5.1.2'
             author="ADC"
             date="30Jul2016"
             comment=""
             element="Kr"
             pseudo_type="USPP"
             relativistic="scalar"
             is_ultrasoft="T"
             is_paw="F"
             is_coulomb="F"
             has_so="F"
             has_wfc="F"
             has_gipaw="T"
             paw_as_gipaw="F"
             core_correction="T"
             functional="PBE"
             z_valence="1.800000000000000E+001"
             total_psenergy="-3.428366183869917E+002"
             wfc_cutoff="5.448310660913534E+001"
             rho_cutoff="2.517903494652956E+002"
             l_max="2"
             l_max_rho="4"
             l_local="-1"
             mesh_size="1217"
             number_of_wfc="3"
             number_of_proj="6"/>
  <PP_MESH dx="1.250000000000000E-002" mesh="1217" xmin="-7.000000000000000E+000" rmax="1.000000000000000E+002"
zmesh="3.600000000000000E+001">
    <PP_R type="real" size="1217" columns="4">
 2.533005459873656E-005  2.564866746302840E-005  2.597128798379395E-005  2.629796657114594E-005 
 2.662875426927833E-005  2.696370276444192E-005  2.730286439302052E-005  2.764629214970865E-005 
 2.799403969579196E-005  2.834616136753207E-005  2.870271218465658E-005  2.906374785895607E-005 
 2.942932480298917E-005  2.979950013889714E-005  3.017433170732939E-005  3.055387807648106E-005 
 3.093819855124453E-005  3.132735318247590E-005  3.172140277637799E-005  3.212040890400161E-005 
 3.252443391086595E-005  3.293354092670036E-005  3.334779387530836E-005  3.376725748455597E-005 
 3.419199729648559E-005  3.462207967755693E-005  3.505757182901707E-005  3.549854179740068E-005 
 3.594505848516244E-005  3.639719166144333E-005  3.685501197297198E-005  3.731859095510352E-005 
 3.778800104299705E-005  3.826331558293380E-005  3.874460884377774E-005  3.923195602858004E-005 
 3.972543328632985E-005  4.022511772385265E-005  4.073108741785842E-005  4.124342142714130E-005 
 4.176219980493257E-005  4.228750361140921E-005  4.281941492635973E-005  4.335801686200923E-005 
 4.390339357600603E-005  4.445563028457123E-005  4.501481327581408E-005  4.558102992321461E-005 
 4.615436869927594E-005  4.673491918934836E-005  4.732277210562705E-005  4.791801930132617E-005 
 4.852075378503110E-005  4.913106973523113E-005  4.974906251503527E-005  5.037482868707265E-005 
 5.100846602858075E-005  5.165007354668336E-005  5.229975149386048E-005  5.295760138361324E-005 
 5.362372600632526E-005  5.429822944532408E-005  5.498121709314435E-005  5.567279566799553E-005 
 5.637307323043706E-005  5.708215920026275E-005  5.780016437359803E-005  5.852720094021206E-005 
 5.926338250104745E-005  6.000882408597096E-005  6.076364217174681E-005  6.152795470023659E-005 
 6.230188109682788E-005  6.308554228909463E-005  6.387906072569267E-005  6.468256039549204E-005 
 6.549616684695091E-005  6.632000720773260E-005  6.715421020456954E-005  6.799890618337730E-005 
 6.885422712962108E-005  6.972030668893884E-005  7.059728018802384E-005  7.148528465576944E-005 
 7.238445884468050E-005  7.329494325255338E-005  7.421688014442918E-005  7.515041357482296E-005 
 7.609568941023246E-005  7.705285535193024E-005  7.802206095904202E-005  7.900345767191576E-005 
 7.999719883578453E-005  8.100343972472688E-005  8.202233756592908E-005  8.305405156425167E-005 
 8.409874292710598E-005  8.515657488964286E-005  8.622771274025858E-005  8.731232384642168E-005 
 8.841057768082408E-005  8.952264584786185E-005  9.064870211044856E-005  9.178892241716616E-005 
 9.294348492975756E-005  9.411257005096421E-005  9.529636045271485E-005  9.649504110466816E-005 
 9.770879930311468E-005  9.893782470024250E-005  1.001823093337703E-004  1.014424476569540E-004 
 1.027184365689703E-004  1.040104754456828E-004  1.053187661707947E-004  1.066435131673934E-004 
 1.079849234298925E-004  1.093432065563745E-004  1.107185747813414E-004  1.121112430088766E-004 
 1.135214288462241E-004  1.149493526377899E-004  1.163952374995716E-004  1.178593093540206E-004 
 1.193417969653428E-004  1.208429319752436E-004  1.223629489391224E-004  1.239020853627223E-004 
 1.254605817392407E-004  1.270386815869076E-004  1.286366314870346E-004  1.302546811225448E-004 
 1.318930833169855E-004  1.335520940740329E-004  1.352319726174934E-004  1.369329814318070E-004 
 1.386553863030616E-004  1.403994563605226E-004  1.421654641186848E-004  1.439536855198535E-004 
 1.457643999772607E-004  1.475978904187243E-004  1.494544433308561E-004  1.513343488038257E-004 
 1.532379005766881E-004  1.551653960832805E-004  1.571171364986975E-004  1.590934267863496E-004 
 1.610945757456150E-004  1.631208960600903E-004  1.651727043464470E-004  1.672503212039044E-004 
 1.693540712643233E-004  1.714842832429306E-004  1.736412899896823E-004  1.758254285412708E-004 
 1.780370401737884E-004  1.802764704560524E-004  1.825440693036004E-004  1.848401910333659E-004 
 1.871651944190408E-004  1.895194427471341E-004  1.919033038737370E-004  1.943171502820003E-004 
 1.967613591403368E-004  1.992363123613528E-004  2.017423966615248E-004  2.042800036216232E-004 
 2.068495297478983E-004  2.094513765340354E-004  2.120859505238878E-004  2.147536633750020E-004 
 2.174549319229382E-004  2.201901782464026E-004  2.229598297331989E-004  2.257643191470058E-004 
 2.286040846950008E-004  2.314795700963280E-004  2.343912246514314E-004  2.373395033122596E-004 
 2.403248667533509E-004  2.433477814438174E-004  2.464087197202294E-004  2.495081598604199E-004 
 2.526465861582173E-004  2.558244889991150E-004  2.590423649368979E-004  2.623007167712281E-004 
 2.656000536262085E-004  2.689408910299359E-004  2.723237509950507E-004  2.757491621003059E-004 
 2.792176595731552E-004  2.827297853733853E-004  2.862860882777986E-004  2.898871239659584E-004 
 2.935334551070182E-004  2.972256514476369E-004  3.009642899010042E-004  3.047499546369858E-004 
 3.085832371733974E-004  3.124647364684352E-004  3.163950590142605E-004  3.203748189317672E-004 
 3.244046380665403E-004  3.284851460860171E-004  3.326169805778784E-004  3.368007871496694E-004 
 3.410372195296788E-004  3.453269396690859E-004  3.496706178453888E-004  3.540689327671408E-004 
 3.585225716799965E-004  3.630322304740967E-004  3.675986137928039E-004  3.722224351428008E-004 
 3.769044170055815E-004  3.816452909503373E-004  3.864457977482672E-004  3.913066874883260E-004 
 3.962287196944238E-004  4.012126634441078E-004  4.062592974887284E-004  4.113694103751222E-004 
 4.165438005688255E-004  4.217832765788318E-004  4.270886570839287E-004  4.324607710606136E-004 
 4.379004579126246E-004  4.434085676021006E-004  4.489859607823854E-004  4.546335089325119E-004 
 4.603520944933682E-004  4.661426110055822E-004  4.720059632491412E-004  4.779430673847606E-004 
 4.839548510970421E-004  4.900422537394212E-004  4.962062264809454E-004  5.024477324548976E-004 
 5.087677469092827E-004  5.151672573592190E-004  5.216472637412336E-004  5.282087785695071E-004 
 5.348528270940814E-004  5.415804474610555E-004  5.483926908747995E-004  5.552906217622063E-004 
 5.622753179390108E-004  5.693478707782016E-004  5.765093853805484E-004  5.837609807472786E-004 
 5.911037899549215E-004  5.985389603323548E-004  6.060676536400770E-004  6.136910462517345E-004 
 6.214103293379334E-004  6.292267090523603E-004  6.371414067202481E-004  6.451556590292104E-004 
 6.532707182224752E-004  6.614878522945522E-004  6.698083451893576E-004  6.782334970008344E-004 
 6.867646241760944E-004  6.954030597211152E-004  7.041501534090262E-004  7.130072719910121E-004 
 7.219757994098708E-004  7.310571370162587E-004  7.402527037876523E-004  7.495639365500690E-004 
 7.589922902025714E-004  7.685392379445994E-004  7.782062715061618E-004  7.879949013809194E-004 
 7.979066570622064E-004  8.079430872820132E-004  8.181057602529803E-004  8.283962639134364E-004 
 8.388162061755139E-004  8.493672151763915E-004  8.600509395326915E-004  8.708690485980802E-004 
 8.818232327241098E-004  8.929152035243352E-004  9.041466941417620E-004  9.155194595196491E-004 
 9.270352766757244E-004  9.386959449798488E-004  9.505032864351676E-004  9.624591459628062E-004 
 9.745653916901400E-004  9.868239152426934E-004  9.992366320397130E-004  1.011805481593451E-003 
 1.024532427812223E-003  1.037419459307267E-003  1.050468589703475E-003  1.063681857954018E-003 
 1.077061328658945E-003  1.090609092387773E-003  1.104327266006148E-003  1.118217993006607E-003 
 1.132283443843506E-003  1.146525816272154E-003  1.160947335692220E-003  1.175550255495453E-003 
 1.190336857417783E-003  1.205309451895844E-003  1.220470378427984E-003  1.235822005939820E-003 
 1.251366733154384E-003  1.267106988966928E-003  1.283045232824448E-003  1.299183955109972E-003 
 1.315525677531693E-003  1.332072953516985E-003  1.348828368611388E-003  1.365794540882600E-003 
 1.382974121329554E-003  1.400369794296649E-003  1.417984277893178E-003  1.435820324418039E-003 
 1.453880720789788E-003  1.472168288982106E-003  1.490685886464726E-003  1.509436406649930E-003 
 1.528422779344646E-003  1.547647971208233E-003  1.567114986216038E-003  1.586826866128758E-003 
 1.606786690967736E-003  1.626997579496210E-003  1.647462689706631E-003  1.668185219314110E-003 
 1.689168406256055E-003  1.710415529198118E-003  1.731929908046485E-003  1.753714904466622E-003 
 1.775773922408544E-003  1.798110408638682E-003  1.820727853278454E-003  1.843629790349601E-003 
 1.866819798326382E-003  1.890301500694728E-003  1.914078566518405E-003  1.938154711012324E-003 
 1.962533696123045E-003  1.987219331116589E-003  2.012215473173652E-003  2.037526027992282E-003 
 2.063154950398164E-003  2.089106244962567E-003  2.115383966628065E-003  2.141992221342131E-003 
 2.168935166698699E-003  2.196217012587797E-003  2.223842021853350E-003  2.251814510959257E-003 
 2.280138850663855E-003  2.308819466702849E-003  2.337860840480844E-003  2.367267509771580E-003 
 2.397044069426958E-003  2.427195172095011E-003  2.457725528946870E-003  2.488639910412909E-003 
 2.519943146928127E-003  2.551640129686914E-003  2.583735811407319E-003  2.616235207104908E-003 
 2.649143394876379E-003  2.682465516693024E-003  2.716206779204168E-003  2.750372454550730E-003 
 2.784967881188993E-003  2.819998464724752E-003  2.855469678757957E-003  2.891387065737962E-003 
 2.927756237829565E-003  2.964582877789895E-003  3.001872739856370E-003  3.039631650645805E-003 
 3.077865510064832E-003  3.116580292231770E-003  3.155782046410105E-003  3.195476897953678E-003 
 3.235671049263806E-003  3.276370780758405E-003  3.317582451853323E-003  3.359312501956019E-003 
 3.401567451471721E-003  3.444353902822258E-003  3.487678541477703E-003  3.531548137000988E-003 
 3.575969544105673E-003  3.620949703726992E-003  3.666495644106397E-003  3.712614481889736E-003 
 3.759313423239242E-003  3.806599764959513E-003  3.854480895637647E-003  3.902964296797727E-003 
 3.952057544069824E-003  4.001768308373702E-003  4.052104357117428E-003  4.103073555411024E-003 
 4.154683867295420E-003  4.206943356986852E-003  4.259860190136902E-003  4.313442635108417E-003 
 4.367699064267435E-003  4.422637955291398E-003  4.478267892493802E-003  4.534597568165512E-003 
 4.591635783932960E-003  4.649391452133405E-003  4.707873597207505E-003  4.767091357109413E-003 
 4.827053984734587E-003  4.887770849365597E-003  4.949251438136069E-003  5.011505357513079E-003 
 5.074542334798188E-003  5.138372219647341E-003  5.203004985609918E-003  5.268450731687092E-003 
 5.334719683909839E-003  5.401822196936769E-003  5.469768755672057E-003  5.538569976903755E-003 
 5.608236610962652E-003  5.678779543402058E-003  5.750209796698689E-003  5.822538531974939E-003 
 5.895777050742864E-003  5.969936796670018E-003  6.045029357367584E-003  6.121066466200944E-003 
 6.198060004123051E-003  6.276022001530858E-003  6.354964640145070E-003  6.434900254913580E-003 
 6.515841335938828E-003  6.597800530429392E-003  6.680790644676172E-003  6.764824646053356E-003 
 6.849915665044628E-003  6.936076997294826E-003  7.023322105687402E-003  7.111664622448059E-003 
 7.201118351274767E-003  7.291697269494650E-003  7.383415530247965E-003  7.476287464699551E-003 
 7.570327584278129E-003  7.665550582943700E-003  7.761971339483541E-003  7.859604919837029E-003 
 7.958466579449725E-003  8.058571765657094E-003  8.159936120098138E-003  8.262575481159464E-003 
 8.366505886450064E-003  8.471743575307202E-003  8.578304991333887E-003  8.686206784968164E-003 
 8.795465816084817E-003  8.906099156629746E-003  9.018124093287493E-003  9.131558130182339E-003 
 9.246418991613324E-003  9.362724624823736E-003  9.480493202805387E-003  9.599743127138181E-003 
 9.720493030865428E-003  9.842761781405245E-003  9.966568483498660E-003  1.009193248219476E-002 
 1.021887336587340E-002  1.034741096930592E-002  1.047756537675436E-002  1.060935692510970E-002 
 1.074280620706949E-002  1.087793407435553E-002  1.101476164097203E-002  1.115331028650463E-002 
 1.129360165946109E-002  1.143565768065385E-002  1.157950054662523E-002  1.172515273311571E-002 
 1.187263699857575E-002  1.202197638772188E-002  1.217319423513749E-002  1.232631416891889E-002 
 1.248136011436727E-002  1.263835629772705E-002  1.279732724997128E-002  1.295829781063468E-002 
 1.312129313169485E-002  1.328633868150234E-002  1.345346024876007E-002  1.362268394655295E-002 
 1.379403621642805E-002  1.396754383252614E-002  1.414323390576526E-002  1.432113388807679E-002 
 1.450127157669490E-002  1.468367511849994E-002  1.486837301441640E-002  1.505539412386631E-002 
 1.524476766927852E-002  1.543652324065477E-002  1.563069080019323E-002  1.582730068697008E-002 
 1.602638362168019E-002  1.622797071143711E-002  1.643209345463376E-002  1.663878374586405E-002 
 1.684807388090648E-002  1.705999656177050E-002  1.727458490180612E-002  1.749187243087806E-002 
 1.771189310060483E-002  1.793468128966367E-002  1.816027180916243E-002  1.838869990807873E-002 
 1.862000127876777E-002  1.885421206253930E-002  1.909136885530478E-002  1.933150871329561E-002 
 1.957466915885316E-002  1.982088818629175E-002  2.007020426783535E-002  2.032265635962894E-002 
 2.057828390782550E-002  2.083712685474950E-002  2.109922564513803E-002  2.136462123246031E-002 
 2.163335508531680E-002  2.190546919391880E-002  2.218100607664937E-002  2.246000878670702E-002 
 2.274252091883285E-002  2.302858661612223E-002  2.331825057692243E-002  2.361155806181663E-002 
 2.390855490069606E-002  2.420928749992107E-002  2.451380284957209E-002  2.482214853079211E-002 
 2.513437272322111E-002  2.545052421252439E-002  2.577065239801538E-002  2.609480730037433E-002 
 2.642303956946428E-002  2.675540049224506E-002  2.709194200078703E-002  2.743271668038562E-002 
 2.777777777777778E-002  2.812717920946207E-002  2.848097557012304E-002  2.883922214116182E-002 
 2.920197489933402E-002  2.956929052549609E-002  2.994122641346199E-002  3.031784067897089E-002 
 3.069919216876800E-002  3.108534046979948E-002  3.147634591852295E-002  3.187226961033535E-002 
 3.227317340911898E-002  3.267911995690809E-002  3.309017268367664E-002  3.350639581724946E-002 
 3.392785439333806E-002  3.435461426570237E-002  3.478674211644070E-002  3.522430546640890E-002 
 3.566737268577060E-002  3.611601300468031E-002  3.657029652410061E-002  3.703029422675565E-002 
 3.749607798822233E-002  3.796772058816101E-002  3.844529572168755E-002  3.892887801088816E-002 
 3.941854301647939E-002  3.991436724961459E-002  4.041642818383892E-002  4.092480426719489E-002 
 4.143957493447974E-002  4.196082061965759E-002  4.248862276842721E-002  4.302306385094815E-002 
 4.356422737472692E-002  4.411219789766511E-002  4.466706104127177E-002  4.522890350404198E-002 
 4.579781307500356E-002  4.637387864743453E-002  4.695719023275255E-002  4.754783897457959E-002 
 4.814591716298323E-002  4.875151824889718E-002  4.936473685872330E-002  4.998566880911692E-002 
 5.061441112195861E-002  5.125106203951392E-002  5.189572103978395E-002  5.254848885204917E-002 
 5.320946747260824E-002  5.387876018071542E-002  5.455647155471802E-002  5.524270748839700E-002 
 5.593757520751325E-002  5.664118328656155E-002  5.735364166573577E-002  5.807506166810714E-002 
 5.880555601701874E-002  5.954523885369888E-002  6.029422575509564E-002  6.105263375193620E-002 
 6.182058134701304E-002  6.259818853370024E-002  6.338557681470289E-002  6.418286922104180E-002 
 6.499019033127756E-002  6.580766629097616E-002  6.663542483241940E-002  6.747359529456358E-002 
 6.832230864324863E-002  6.918169749166200E-002  7.005189612105972E-002  7.093304050174797E-002 
 7.182526831432907E-002  7.272871897121394E-002  7.364353363840577E-002  7.456985525755756E-002 
 7.550782856830680E-002  7.645760013089187E-002  7.741931834905143E-002  7.839313349321388E-002 
 7.937919772397682E-002  8.037766511588225E-002  8.138869168149181E-002  8.241243539576301E-002 
 8.344905622073423E-002  8.449871613051849E-002  8.556157913661197E-002  8.663781131352209E-002 
 8.772758082471581E-002  8.883105794889651E-002  8.994841510661009E-002  9.107982688718537E-002 
 9.222547007601531E-002  9.338552368217862E-002  9.456016896641160E-002  9.574958946942992E-002 
 9.695397104060671E-002  9.817350186701315E-002  9.940837250282168E-002  1.006587758990817E-001 
 1.019249074338680E-001  1.032069649428084E-001  1.045051487499976E-001  1.058196616992962E-001 
 1.071507091860270E-001  1.084984991890682E-001  1.098632423033494E-001  1.112451517727591E-001 
 1.126444435234632E-001  1.140613361976447E-001  1.154960511876670E-001  1.169488126706656E-001 
 1.184198476435784E-001  1.199093859586123E-001  1.214176603591599E-001  1.229449065161649E-001 
 1.244913630649462E-001  1.260572716424863E-001  1.276428769251858E-001  1.292484266670963E-001 
 1.308741717386318E-001  1.325203661657667E-001  1.341872671697301E-001  1.358751352071946E-001 
 1.375842340109754E-001  1.393148306312378E-001  1.410671954772245E-001  1.428416023595081E-001 
 1.446383285327736E-001  1.464576547391414E-001  1.482998652520328E-001  1.501652479205880E-001 
 1.520540942146446E-001  1.539666992702785E-001  1.559033619359210E-001  1.578643848190541E-001 
 1.598500743334925E-001  1.618607407472633E-001  1.638966982310838E-001  1.659582649074534E-001 
 1.680457629003597E-001  1.701595183856107E-001  1.722998616418020E-001  1.744671271019213E-001 
 1.766616534056064E-001  1.788837834520573E-001  1.811338644536142E-001  1.834122479900121E-001 
 1.857192900633131E-001  1.880553511535354E-001  1.904207962749773E-001  1.928159950332510E-001 
 1.952413216830361E-001  1.976971551865555E-001  2.001838792727907E-001  2.027018824974399E-001 
 2.052515583036292E-001  2.078333050833913E-001  2.104475262399125E-001  2.130946302505674E-001 
 2.157750307307438E-001  2.184891464984692E-001  2.212374016398550E-001  2.240202255753576E-001 
 2.268380531268791E-001  2.296913245857076E-001  2.325804857813129E-001  2.355059881510106E-001 
 2.384682888104971E-001  2.414678506252778E-001  2.445051422829893E-001  2.475806383666316E-001 
 2.506948194287258E-001  2.538481720663980E-001  2.570411889974136E-001  2.602743691371649E-001 
 2.635482176766257E-001  2.668632461612920E-001  2.702199725711080E-001  2.736189214014050E-001 
 2.770606237448535E-001  2.805456173744459E-001  2.840744468275280E-001  2.876476634908804E-001 
 2.912658256868770E-001  2.949294987607225E-001  2.986392551687876E-001  3.023956745680597E-001 
 3.061993439067112E-001  3.100508575158157E-001  3.139508172022108E-001  3.178998323425312E-001 
 3.218985199784278E-001  3.259475049129781E-001  3.300474198083165E-001  3.341989052844872E-001 
 3.384026100195409E-001  3.426591908508963E-001  3.469693128779670E-001  3.513336495660895E-001 
 3.557528828517512E-001  3.602277032491426E-001  3.647588099580564E-001  3.693469109731330E-001 
 3.739927231944919E-001  3.786969725397434E-001  3.834603940574193E-001  3.882837320418235E-001 
 3.931677401493280E-001  3.981131815161374E-001  4.031208288775257E-001  4.081914646885817E-001 
 4.133258812464680E-001  4.185248808142165E-001  4.237892757460883E-001  4.291198886145007E-001 
 4.345175523385603E-001  4.399831103142064E-001  4.455174165459910E-001  4.511213357805238E-001 
 4.567957436415850E-001  4.625415267669484E-001  4.683595829469180E-001  4.742508212646073E-001 
 4.802161622379907E-001  4.862565379637303E-001  4.923728922628234E-001  4.985661808280738E-001 
 5.048373713734186E-001  5.111874437851409E-001  5.176173902749727E-001  5.241282155351357E-001 
 5.307209368953241E-001  5.373965844816616E-001  5.441562013776672E-001  5.510008437872315E-001 
 5.579315811996575E-001  5.649494965567674E-001  5.720556864221121E-001  5.792512611523176E-001 
 5.865373450705730E-001  5.939150766423151E-001  6.013856086531132E-001  6.089501083887909E-001 
 6.166097578178240E-001  6.243657537760173E-001  6.322193081535202E-001  6.401716480841834E-001 
 6.482240161372979E-001  6.563776705117569E-001  6.646338852326431E-001  6.729939503503050E-001 
 6.814591721419271E-001  6.900308733156346E-001  6.987103932171776E-001  7.074990880391971E-001 
 7.163983310331407E-001  7.254095127238331E-001  7.345340411267445E-001  7.437733419680044E-001 
 7.531288589071641E-001  7.626020537627806E-001  7.721944067408247E-001  7.819074166659626E-001 
 7.917426012157588E-001  8.017014971578065E-001  8.117856605898595E-001  8.219966671829717E-001 
 8.323361124276951E-001  8.428056118833878E-001  8.534068014306371E-001  8.641413375268795E-001 
 8.750108974652213E-001  8.860171796365139E-001  8.971619037947423E-001  9.084468113257270E-001 
 9.198736655192309E-001  9.314442518444712E-001  9.431603782290987E-001  9.550238753417007E-001 
 9.670365968778347E-001  9.792004198496816E-001  9.915172448793308E-001  1.003988996495748E+000 
 1.016617623435501E+000  1.029405098947239E+000  1.042353421100028E+000  1.055464613095550E+000 
 1.068740723584226E+000  1.082183826985334E+000  1.095796023811126E+000  1.109579440995054E+000 
 1.123536232224095E+000  1.137668578275272E+000  1.151978687356412E+000  1.166468795451167E+000 
 1.181141166668411E+000  1.195998093595999E+000  1.211041897658986E+000  1.226274929482369E+000 
 1.241699569258357E+000  1.257318227118299E+000  1.273133343509264E+000  1.289147389575360E+000 
 1.305362867543871E+000  1.321782311116214E+000  1.338408285863856E+000  1.355243389629179E+000 
 1.372290252931394E+000  1.389551539377578E+000  1.407029946078852E+000  1.424728204071825E+000 
 1.442649078745319E+000  1.460795370272457E+000  1.479169914048214E+000  1.497775581132432E+000 
 1.516615278698451E+000  1.535691950487347E+000  1.555008577267893E+000  1.574568177302330E+000 
 1.594373806817951E+000  1.614428560484666E+000  1.634735571898541E+000  1.655298014071416E+000 
 1.676119099926724E+000  1.697202082801483E+000  1.718550256954663E+000  1.740166958081914E+000 
 1.762055563836760E+000  1.784219494358388E+000  1.806662212806028E+000  1.829387225900103E+000 
 1.852398084470145E+000  1.875698384009615E+000  1.899291765237728E+000  1.923181914668296E+000 
 1.947372565185774E+000  1.971867496628526E+000  1.996670536379419E+000  2.021785559963882E+000 
 2.047216491655440E+000  2.072967305088914E+000  2.099042023881297E+000  2.125444722260442E+000 
 2.152179525701694E+000  2.179250611572476E+000  2.206662209785037E+000  2.234418603457370E+000 
 2.262524129582448E+000  2.290983179705920E+000  2.319800200612258E+000  2.348979695019611E+000 
 2.378526222283352E+000  2.408444399108470E+000  2.438738900270970E+000  2.469414459348287E+000 
 2.500475869458939E+000  2.531927984011457E+000  2.563775717462719E+000  2.596024046085882E+000 
 2.628678008747893E+000  2.661742707696858E+000  2.695223309359262E+000  2.729125045147224E+000 
 2.763453212275943E+000  2.798213174591365E+000  2.833410363408325E+000  2.869050278359190E+000 
 2.905138488253173E+000  2.941680631946501E+000  2.978682419223460E+000  3.016149631688600E+000 
 3.054088123670100E+000  3.092503823134510E+000  3.131402732613037E+000  3.170790930139418E+000 
 3.210674570199657E+000  3.251059884693664E+000  3.291953183908982E+000  3.333360857506821E+000 
 3.375289375520416E+000  3.417745289366015E+000  3.460735232866540E+000  3.504265923288116E+000 
 3.548344162389695E+000  3.592976837485805E+000  3.638170922522739E+000  3.683933479168241E+000 
 3.730271657914876E+000  3.777192699197364E+000  3.824703934523853E+000  3.872812787621532E+000 
 3.921526775596583E+000  3.970853510108723E+000  4.020800698560588E+000  4.071376145301977E+000 
 4.122587752849350E+000  4.174443523120583E+000  4.226951558685268E+000  4.280120064030803E+000 
 4.333957346844309E+000  4.388471819310762E+000  4.443671999427408E+000  4.499566512334677E+000 
 4.556164091663944E+000  4.613473580902114E+000  4.671503934773485E+000  4.730264220638920E+000 
 4.789763619912621E+000  4.850011429496790E+000  4.911017063234235E+000  4.972790053379352E+000 
 5.035340052087538E+000  5.098676832923333E+000  5.162810292387620E+000  5.227750451463902E+000 
 5.293507457184166E+000  5.360091584214350E+000  5.427513236459749E+000  5.495782948690715E+000 
 5.564911388188662E+000  5.634909356412914E+000  5.705787790688427E+000  5.777557765914739E+000 
 5.850230496296521E+000  5.923817337095723E+000  5.998329786405947E+000  6.073779486949005E+000 
 6.150178227894088E+000  6.227537946699925E+000  6.305870730979947E+000  6.385188820391079E+000 
 6.465504608546174E+000  6.546830644950517E+000  6.629179636962774E+000  6.712564451780466E+000 
 6.796998118450566E+000  6.882493829905287E+000  6.969064945023461E+000  7.056724990717980E+000 
 7.145487664049305E+000  7.235366834365744E+000  7.326376545470534E+000  7.418531017816171E+000 
 7.511844650726472E+000  7.606332024646404E+000  7.702007903420388E+000  7.798887236599153E+000 
 7.896985161775581E+000  7.996317006950093E+000  8.096898292925561E+000  8.198744735732564E+000 
 8.301872249085015E+000  8.406296946866663E+000  8.512035145649016E+000  8.619103367240733E+000 
 8.727518341269283E+000  8.837297007794946E+000  8.948456519957681E+000  9.061014246657454E+000 
 9.174987775268026E+000  9.290394914385139E+000  9.407253696609098E+000  9.525582381362344E+000 
 9.645399457742641E+000  9.766723647411911E+000  9.889573907521642E+000  1.001396943367494E+001 
 1.013992966292580E+001  1.026747427681637E+001  1.039662320445201E+001  1.052739662561543E+001 
 1.065981497391978E+001  1.079389894000136E+001  1.092966947475268E+001  1.106714779259600E+001 
 1.120635537479820E+001  1.134731397282724E+001  1.149004561175080E+001  1.163457259367790E+001 
 1.178091750124346E+001  1.192910320113705E+001  1.207915284767580E+001  1.223108988642219E+001 
 1.238493805784771E+001  1.254072140104210E+001  1.269846425746969E+001  1.285819127477277E+001 
 1.301992741062269E+001  1.318369793661980E+001  1.334952844224193E+001  1.351744483884298E+001 
 1.368747336370158E+001  1.385964058412061E+001  1.403397340157860E+001  1.421049905593289E+001 
 1.438924512967617E+001  1.457023955224612E+001  1.475351060438948E+001  1.493908692258104E+001 
 1.512699750349804E+001  1.531727170855108E+001  1.550993926847183E+001  1.570503028795848E+001 
 1.590257525037977E+001  1.610260502253796E+001  1.630515085949191E+001  1.651024440944078E+001 
 1.671791771866895E+001  1.692820323655356E+001  1.714113382063455E+001  1.735674274174891E+001 
 1.757506368922928E+001  1.779613077616780E+001  1.801997854474664E+001  1.824664197163499E+001 
 1.847615647345449E+001  1.870855791231304E+001  1.894388260140821E+001  1.918216731070151E+001 
 1.942344927266349E+001  1.966776618809165E+001  1.991515623200111E+001  2.016565805958948E+001 
 2.041931081227705E+001  2.067615412382242E+001  2.093622812651559E+001  2.119957345744866E+001 
 2.146623126486528E+001  2.173624321459046E+001  2.200965149654061E+001  2.228649883131608E+001 
 2.256682847687622E+001  2.285068423529840E+001  2.313811045962247E+001  2.342915206078065E+001 
 2.372385451461532E+001  2.402226386898450E+001  2.432442675095683E+001  2.463039037409748E+001 
 2.494020254584495E+001  2.525391167498145E+001  2.557156677919669E+001  2.589321749274690E+001 
 2.621891407421055E+001  2.654870741434105E+001  2.688264904401879E+001  2.722079114230290E+001 