<UPF version="2.0.1">
  <PP_INFO>
    Generated using "atomic" code by A. Dal Corso  v.5.1.2
    Author: ADC
    Generation date: 30Jul2016
    Pseudopotential type: PAW
    Element: Lu
    Functional:  SLA  PW   PBX  PBC

    Suggested minimum cutoff for wavefunctions: 173. Ry
    Suggested minimum cutoff for charge density: 691. Ry
    The Pseudo was generated with a Scalar-Relativistic Calculation
    Local Potential by smoothing AE potential with Bessel fncs, cutoff radius:   1.7000
    Pseudopotential contains additional information for GIPAW reconstruction.

    Valence configuration: 
    nl pn  l   occ       Rcut    Rcut US       E pseu
    5S  1  0  2.00      0.900      1.300    -4.487680
    6S  2  0  2.00      0.900      1.300    -0.342430
    5P  2  1  6.00      1.000      1.300    -2.327024
    4D  3  2 10.00      0.900      1.000   -14.105368
    5D  4  2  1.00      0.900      1.000    -0.128556
    4F  4  3 14.00      1.000      1.100    -0.707241
    Generation configuration:
    5S  1  0  2.00      0.900      1.300    -4.487718
    6S  2  0  2.00      0.900      1.300    -0.342435
    5P  2  1  6.00      1.000      1.300    -2.327044
    6P  3  1  0.00      1.000      1.300     0.300000
    4D  3  2 10.00      0.900      1.000   -14.105474
    5D  4  2  1.00      0.900      1.000    -0.128569
    4F  4  3 14.00      1.000      1.100    -0.707332
    4F  4  3  0.00      1.000      1.100     1.000000

    Pseudization used: troullier-martins
<PP_INPUTFILE>
 &input
   title='Lu',
   zed=71.0,
   rel=1,
   config='[Xe] 4f14.0 5d1.0 6s2. 6p0.',
   iswitch=3,
   dft='PBE'
 /
 &inputp
   lpaw=.true.,
   pseudotype=3,
   file_pseudopw='Lu.pbe-spdfn-kjpaw_psl.1.0.0.UPF',
   author='ADC',
   lloc=-1,
   rcloc=1.7,
   which_augfun='PSQ',
   rmatch_augfun_nc=.true.,
   nlcc=.true.,
   new_core_ps=.true.,
   rcore=1.2,
   tm=.true.
 /
8
5S  1  0  2.00  0.00  0.90  1.30  0.0
6S  2  0  2.00  0.00  0.90  1.30  0.0
5P  2  1  6.00  0.00  1.00  1.30  0.0
6P  3  1  0.00  0.30  1.00  1.30  0.0
4D  3  2 10.00  0.00  0.90  1.00  0.0
5D  4  2  1.00  0.00  0.90  1.00  0.0
4F  4  3 14.00  0.00  1.00  1.10  0.0
4F  4  3  0.00  1.00  1.00  1.10  0.0
</PP_INPUTFILE>
  </PP_INFO>
  <!--                               -->
  <!-- END OF HUMAN READABLE SECTION -->
  <!--                               -->
  <PP_HEADER generated='Generated using "atomic" code by A. Dal Corso  v.5.1.2'
             author="ADC"
             date="30Jul2016"
             comment=""
             element="Lu"
             pseudo_type="PAW"
             relativistic="scalar"
             is_ultrasoft="T"
             is_paw="T"
             is_coulomb="F"
             has_so="F"
             has_wfc="T"
             has_gipaw="T"
             paw_as_gipaw="T"
             core_correction="T"
             functional=" SLA  PW   PBX  PBC"
             z_valence="3.500000000000000E+001"
             total_psenergy="-1.889145648502802E+003"
             wfc_cutoff="1.727687875077879E+002"
             rho_cutoff="6.910751500311516E+002"
             l_max="3"
             l_max_rho="6"
             l_local="-1"
             mesh_size="1271"
             number_of_wfc="6"
             number_of_proj="8"/>
  <PP_MESH dx="1.250000000000000E-002" mesh="1271" xmin="-7.000000000000000E+000" rmax="1.000000000000000E+002"
zmesh="7.100000000000000E+001">
    <PP_R type="real" size="1271" columns="4">
 1.284340796555657E-005  1.300495815026792E-005  1.316854038614904E-005  1.333418023325710E-005 
 1.350190357315521E-005  1.367173661295646E-005  1.384370588941886E-005  1.401783827309171E-005 
 1.419416097251423E-005  1.437270153846697E-005  1.455348786827658E-005  1.473654821017491E-005 
 1.492191116771282E-005  1.510960570422953E-005  1.529966114737828E-005  1.549210719370871E-005 
 1.568697391330709E-005  1.588429175449482E-005  1.608409154858602E-005  1.628640451470504E-005 
 1.649126226466443E-005  1.669869680790440E-005  1.690874055649438E-005  1.712142633019739E-005 
 1.733678736159833E-005  1.755485730129647E-005  1.777567022316358E-005  1.799926062966795E-005 
 1.822566345726546E-005  1.845491408185859E-005  1.868704832432382E-005  1.892210245610883E-005 
 1.916011320489991E-005  1.940111776036081E-005  1.964515377994365E-005  1.989225939477298E-005 
 2.014247321560387E-005  2.039583433885487E-005  2.065238235271694E-005  2.091215734333925E-005 
 2.117519990109257E-005  2.144155112691171E-005  2.171125263871761E-005  2.198434657792017E-005 
 2.226087561600306E-005  2.254088296119105E-005  2.282441236520150E-005  2.311150813008065E-005 
 2.340221511512583E-005  2.369657874389495E-005  2.399464501130386E-005  2.429646049081327E-005 
 2.460207234170591E-005  2.491152831645522E-005  2.522487676818690E-005  2.554216665823402E-005 
 2.586344756378743E-005  2.618876968564227E-005  2.651818385604194E-005  2.685174154662079E-005 
 2.718949487644661E-005  2.753149662016433E-005  2.787780021624221E-005  2.822845977532168E-005 
 2.858353008867231E-005  2.894306663675294E-005  2.930712559788069E-005  2.967576385700893E-005 
 3.004903901461561E-005  3.042700939570358E-005  3.080973405891388E-005  3.119727280575376E-005 
 3.158968618994089E-005  3.198703552686489E-005  3.238938290316811E-005  3.279679118644668E-005 
 3.320932403507370E-005  3.362704590814610E-005  3.405002207555638E-005  3.447831862819131E-005 
 3.491200248825857E-005  3.535114141974364E-005  3.579580403899800E-005  3.624605982546056E-005 
 3.670197913251406E-005  3.716363319847777E-005  3.763109415773874E-005  3.810443505202291E-005 
 3.858372984180801E-005  3.906905341788012E-005  3.956048161303539E-005  4.005809121392912E-005 
 4.056195997307385E-005  4.107216662098828E-005  4.158879087849925E-005  4.211191346919803E-005 
 4.264161613205374E-005  4.317798163418511E-005  4.372109378379308E-005  4.427103744325606E-005 
 4.482789854238967E-005  4.539176409187361E-005  4.596272219684716E-005  4.654086207067580E-005 
 4.712627404889115E-005  4.771904960330580E-005  4.831928135630612E-005  4.892706309532470E-005 
 4.954248978749477E-005  5.016565759448915E-005  5.079666388754550E-005  5.143560726268089E-005 
 5.208258755609763E-005  5.273770585978282E-005  5.340106453730433E-005  5.407276723980512E-005 
 5.475291892219901E-005  5.544162585957019E-005  5.613899566377874E-005  5.684513730027547E-005 
 5.756016110512770E-005  5.828417880225967E-005  5.901730352090957E-005  5.975964981330620E-005 
 6.051133367256816E-005  6.127247255082774E-005  6.204318537758319E-005  6.282359257828171E-005 
 6.361381609313615E-005  6.441397939617849E-005  6.522420751455275E-005  6.604462704805086E-005 
 6.687536618889405E-005  6.771655474176317E-005  6.856832414408118E-005  6.943080748655003E-005 
 7.030413953394672E-005  7.118845674618048E-005  7.208389729961481E-005  7.299060110865809E-005 
 7.390870984762514E-005  7.483836697287431E-005  7.577971774522283E-005  7.673290925264401E-005 
 7.769809043325030E-005  7.867541209856479E-005  7.966502695708602E-005  8.066708963814908E-005 
 8.168175671608650E-005  8.270918673469369E-005  8.374954023200133E-005  8.480297976535998E-005 
 8.586966993683997E-005  8.694977741895072E-005  8.804347098068396E-005  8.915092151388375E-005 
 9.027230205994905E-005  9.140778783687164E-005  9.255755626661426E-005  9.372178700283343E-005 
 9.490066195895024E-005  9.609436533657503E-005  9.730308365428918E-005  9.852700577678888E-005 
 9.976632294439613E-005  1.010212288029394E-004  1.022919194340126E-004  1.035785933856118E-004 
 1.048814517031597E-004  1.062006979609194E-004  1.075365382938023E-004  1.088891814295785E-004 
 1.102588387214898E-004  1.116457241812746E-004  1.130500545126079E-004  1.144720491449607E-004 
 1.159119302678878E-004  1.173699228657438E-004  1.188462547528385E-004  1.203411566090331E-004 
 1.218548620157836E-004  1.233876074926398E-004  1.249396325342008E-004  1.265111796475368E-004 
 1.281024943900820E-004  1.297138254080020E-004  1.313454244750469E-004  1.329975465318903E-004 
 1.346704497259649E-004  1.363643954517985E-004  1.380796483918567E-004  1.398164765579016E-004 
 1.415751513328674E-004  1.433559475132657E-004  1.451591433521232E-004  1.469850206024578E-004 
 1.488338645613050E-004  1.507059641142947E-004  1.526016117807909E-004  1.545211037595984E-004 
 1.564647399752437E-004  1.584328241248404E-004  1.604256637255405E-004  1.624435701625862E-004 
 1.644868587379641E-004  1.665558487196707E-004  1.686508633916003E-004  1.707722301040577E-004 
 1.729202803249075E-004  1.750953496913675E-004  1.772977780624507E-004  1.795279095720714E-004 
 1.817860926828151E-004  1.840726802403870E-004  1.863880295287456E-004  1.887325023259272E-004 
 1.911064649605765E-004  1.935102883691851E-004  1.959443481540510E-004  1.984090246419681E-004 
 2.009047029436515E-004  2.034317730139138E-004  2.059906297125947E-004  2.085816728662592E-004 
 2.112053073306721E-004  2.138619430540556E-004  2.165519951411469E-004  2.192758839180576E-004 
 2.220340349979505E-004  2.248268793475440E-004  2.276548533544489E-004  2.305183988953581E-004 
 2.334179634050881E-004  2.363539999464924E-004  2.393269672812547E-004  2.423373299415688E-004 
 2.453855583027255E-004  2.484721286566080E-004  2.515975232861132E-004  2.547622305405114E-004 
 2.579667449117490E-004  2.612115671117167E-004  2.644972041504846E-004  2.678241694155247E-004 
 2.711929827519286E-004  2.746041705436338E-004  2.780582657956730E-004  2.815558082174568E-004 
 2.850973443071041E-004  2.886834274368346E-004  2.923146179394330E-004  2.959914831958033E-004 
 2.997145977236222E-004  3.034845432671094E-004  3.073019088879264E-004  3.111672910572175E-004 
 3.150812937488113E-004  3.190445285335911E-004  3.230576146750553E-004  3.271211792260785E-004 
 3.312358571268888E-004  3.354022913042800E-004  3.396211327720686E-004  3.438930407328174E-004 
 3.482186826808366E-004  3.525987345064809E-004  3.570338806017598E-004  3.615248139672737E-004 
 3.660722363204978E-004  3.706768582054269E-004  3.753393991035984E-004  3.800605875465139E-004 
 3.848411612294728E-004  3.896818671268391E-004  3.945834616087581E-004  3.995467105593394E-004 
 4.045723894963301E-004  4.096612836922884E-004  4.148141882972858E-004  4.200319084631509E-004 
 4.253152594692747E-004  4.306650668500013E-004  4.360821665236182E-004  4.415674049229702E-004 
 4.471216391277176E-004  4.527457369982545E-004  4.584405773113159E-004  4.642070498972868E-004 
 4.700460557792406E-004  4.759585073137261E-004  4.819453283333244E-004  4.880074542910004E-004 
 4.941458324062681E-004  5.003614218131967E-004  5.066551937102770E-004  5.130281315121724E-004 
 5.194812310033805E-004  5.260155004938256E-004  5.326319609764097E-004  5.393316462865446E-004 
 5.461156032636903E-004  5.529848919149270E-004  5.599405855805819E-004  5.669837711019416E-004 
 5.741155489910736E-004  5.813370336027824E-004  5.886493533087312E-004  5.960536506737509E-004 
 6.035510826343689E-004  6.111428206795827E-004  6.188300510339074E-004  6.266139748427257E-004 
 6.344958083599694E-004  6.424767831381607E-004  6.505581462208468E-004  6.587411603374505E-004 
 6.670271041005765E-004  6.754172722057954E-004  6.839129756339433E-004  6.925155418559660E-004 
 7.012263150403372E-004  7.100466562630899E-004  7.189779437204848E-004  7.280215729443579E-004 
 7.371789570201744E-004  7.464515268078281E-004  7.558407311652131E-004  7.653480371746126E-004 
 7.749749303719332E-004  7.847229149788225E-004  7.945935141377092E-004  8.045882701497928E-004 
 8.147087447160350E-004  8.249565191811768E-004  8.353331947808271E-004  8.458403928916612E-004 
 8.564797552847601E-004  8.672529443821442E-004  8.781616435165276E-004  8.892075571943433E-004 
 9.003924113620785E-004  9.117179536759515E-004  9.231859537749910E-004  9.347982035575442E-004 
 9.465565174612641E-004  9.584627327466225E-004  9.705187097839800E-004  9.827263323442771E-004 
 9.950875078933749E-004  1.007604167890102E-003  1.020278268088049E-003  1.033111788841157E-003 
 1.046106735413154E-003  1.059265138290879E-003  1.072589053501554E-003  1.086080562934038E-003 
 1.099741774664129E-003  1.113574823283953E-003  1.127581870235501E-003  1.141765104148355E-003 
 1.156126741181673E-003  1.170669025370459E-003  1.185394228976203E-003  1.200304652841928E-003 
 1.215402626751697E-003  1.230690509794653E-003  1.246170690733624E-003  1.261845588378376E-003 
 1.277717651963557E-003  1.293789361531393E-003  1.310063228319204E-003  1.326541795151784E-003 
 1.343227636838728E-003  1.360123360576745E-003  1.377231606357043E-003  1.394555047377835E-003 
 1.412096390462025E-003  1.429858376480156E-003  1.447843780778682E-003  1.466055413613615E-003 
 1.484496120589638E-003  1.503168783104735E-003  1.522076318800413E-003  1.541221682017591E-003 
 1.560607864258225E-003  1.580237894652729E-003  1.600114840433293E-003  1.620241807413133E-003 
 1.640621940471789E-003  1.661258424046515E-003  1.682154482629854E-003  1.703313381273475E-003 
 1.724738426098337E-003  1.746432964811286E-003  1.768400387228131E-003  1.790644125803318E-003 
 1.813167656166257E-003  1.835974497664390E-003  1.859068213913102E-003  1.882452413352542E-003 
 1.906130749811446E-003  1.930106923078063E-003  1.954384679478244E-003  1.978967812460819E-003 
 2.003860163190333E-003  2.029065621147229E-003  2.054588124735597E-003  2.080431661898547E-003 
 2.106600270741340E-003  2.133098040162348E-003  2.159929110491950E-003  2.187097674139479E-003 
 2.214607976248277E-003  2.242464315359019E-003  2.270671044081365E-003  2.299232569774062E-003 
 2.328153355233614E-003  2.357437919391585E-003  2.387090838020707E-003  2.417116744449843E-003 
 2.447520330287960E-003  2.478306346157204E-003  2.509479602435190E-003  2.541044970006632E-003 
 2.573007381024433E-003  2.605371829680342E-003  2.638143372985311E-003  2.671327131559652E-003 
 2.704928290433158E-003  2.738952099855263E-003  2.773403876115409E-003  2.808289002373735E-003 
 2.843612929502190E-003  2.879381176936255E-003  2.915599333537363E-003  2.952273058466166E-003 
 2.989408082066804E-003  3.027010206762263E-003  3.065085307961028E-003  3.103639334975127E-003 
 3.142678311949716E-003  3.182208338804379E-003  3.222235592186232E-003  3.262766326435055E-003 
 3.303806874560533E-003  3.345363649231805E-003  3.387443143779467E-003  3.430051933210152E-003 
 3.473196675233896E-003  3.516884111304418E-003  3.561121067672485E-003  3.605914456452536E-003 
 3.651271276702699E-003  3.697198615518414E-003  3.743703649139814E-003  3.790793644073012E-003 
 3.838475958225530E-003  3.886758042055961E-003  3.935647439738134E-003  3.985151790339902E-003 
 4.035278829016762E-003  4.086036388220499E-003  4.137432398922999E-003  4.189474891855503E-003 
 4.242171998763413E-003  4.295531953676891E-003  4.349563094197464E-003  4.404273862800759E-003 
 4.459672808155682E-003  4.515768586460154E-003  4.572569962793658E-003  4.630085812486819E-003 
 4.688325122508164E-003  4.747296992868373E-003  4.807010638042168E-003  4.867475388408092E-003 
 4.928700691706415E-003  4.990696114515336E-003  5.053471343745800E-003  5.117036188155091E-003 
 5.181400579879469E-003  5.246574575986099E-003  5.312568360044466E-003  5.379392243717593E-003 
 5.447056668373261E-003  5.515572206715479E-003  5.584949564436521E-003  5.655199581889673E-003 
 5.726333235783089E-003  5.798361640894912E-003  5.871296051809977E-003  5.945147864678388E-003 
 6.019928618996152E-003  6.095649999408275E-003  6.172323837534501E-003  6.249962113818027E-003 
 6.328576959397488E-003  6.408180658002446E-003  6.488785647872762E-003  6.570404523702094E-003 
 6.653050038605841E-003  6.736735106113861E-003  6.821472802188206E-003  6.907276367266286E-003 
 6.994159208329716E-003  7.082134900999168E-003  7.171217191655623E-003  7.261419999588230E-003 
 7.352757419169245E-003  7.445243722056306E-003  7.538893359422399E-003  7.633720964213905E-003 
 7.729741353436994E-003  7.826969530472841E-003  7.925420687421917E-003  8.025110207477789E-003 
 8.126053667330799E-003  8.228266839601915E-003  8.331765695307259E-003  8.436566406353603E-003 
 8.542685348065260E-003  8.650139101742787E-003  8.758944457253807E-003  8.869118415656484E-003 
 8.980678191855969E-003  9.093641217294255E-003  9.208025142673907E-003  9.323847840715976E-003 
 9.441127408952671E-003  9.559882172555139E-003  9.680130687196793E-003  9.801891741952706E-003 
 9.925184362235403E-003  1.005002781276765E-002  1.017644160059257E-002  1.030444547812171E-002 
 1.043405944622138E-002  1.056530375733778E-002  1.069819891866153E-002  1.083276569533199E-002 
 1.096902511368176E-002  1.110699846452221E-002  1.124670730647010E-002  1.138817346931624E-002 
 1.153141905743637E-002  1.167646645324508E-002  1.182333832069306E-002  1.197205760880843E-002 
 1.212264755528251E-002  1.227513169010082E-002  1.242953383921966E-002  1.258587812828895E-002 
 1.274418898642197E-002  1.290449115001237E-002  1.306680966659935E-002  1.323116989878135E-002 
 1.339759752817907E-002  1.356611855944820E-002  1.373675932434272E-002  1.390954648582932E-002 
 1.408450704225352E-002  1.426166833155823E-002  1.444105803555534E-002  1.462270418425106E-002 
 1.480663516022570E-002  1.499287970306844E-002  1.518146691386805E-002  1.537242625975989E-002 
 1.556578757853026E-002  1.576158108327861E-002  1.595983736713840E-002  1.616058740805736E-002 
 1.636386257363780E-002  1.656969462603790E-002  1.677811572693463E-002  1.698915844254902E-002 
 1.720285574873479E-002  1.741924103613078E-002  1.763834811537838E-002  1.786021122240451E-002 
 1.808486502377100E-002  1.831234462209143E-002  1.854268556151580E-002  1.877592383328456E-002 
 1.901209588135217E-002  1.925123860808164E-002  1.949338938001059E-002  1.973858603368977E-002 
 1.998686688159518E-002  2.023827071811444E-002  2.049283682560847E-002  2.075060498054952E-002 
 2.101161545973621E-002  2.127590904658695E-002  2.154352703751239E-002  2.181451124836807E-002 
 2.208890402098830E-002  2.236674822980203E-002  2.264808728853216E-002  2.293296515697903E-002 
 2.322142634788913E-002  2.351351593391047E-002  2.380927955463510E-002  2.410876342373050E-002 
 2.441201433616051E-002  2.471907967549716E-002  2.503000742132449E-002  2.534484615673534E-002 
 2.566364507592268E-002  2.598645399186621E-002  2.631332334411581E-002  2.664430420667282E-002 
 2.697944829597038E-002  2.731880797895430E-002  2.766243628126547E-002  2.801038689552524E-002 
 2.836271418972503E-002  2.871947321572135E-002  2.908071971783785E-002  2.944651014157545E-002 
 2.981690164243204E-002  3.019195209483323E-002  3.057172010117525E-002  3.095626500098173E-002 
 3.134564688017562E-002  3.173992658046772E-002  3.213916570886344E-002  3.254342664728880E-002 
 3.295277256233792E-002  3.336726741514284E-002  3.378697597136758E-002  3.421196381132801E-002 
 3.464229734023874E-002  3.507804379858918E-002  3.551927127265000E-002  3.596604870511164E-002 
 3.641844590585700E-002  3.687653356286904E-002  3.734038325327617E-002  3.781006745453623E-002 
 3.828565955576120E-002  3.876723386918461E-002  3.925486564177256E-002  3.974863106698168E-002 
 4.024860729666430E-002  4.075487245312340E-002  4.126750564131978E-002  4.178658696123195E-002 
 4.231219752037228E-002  4.284441944646008E-002  4.338333590025396E-002  4.392903108854641E-002 
 4.448159027732069E-002  4.504109980507429E-002  4.560764709630934E-002  4.618132067519259E-002 
 4.676221017938804E-002  4.735040637406240E-002  4.794600116606786E-002  4.854908761830250E-002 
 4.915975996425129E-002  4.977811362271090E-002  5.040424521269832E-002  5.103825256854846E-002 
 5.168023475520066E-002  5.233029208367752E-002  5.298852612675936E-002  5.365503973485440E-002 
 5.432993705207004E-002  5.501332353248528E-002  5.570530595662785E-002  5.640599244815957E-002 
 5.711549249077009E-002  5.783391694528466E-002  5.856137806698607E-002  5.929798952315436E-002 
 6.004386641082848E-002  6.079912527478936E-002  6.156388412577122E-002  6.233826245890053E-002 
 6.312238127236711E-002  6.391636308633108E-002  6.472033196206606E-002  6.553441352134463E-002 
 6.635873496606683E-002  6.719342509813525E-002  6.803861433958146E-002  6.889443475294375E-002 
 6.976102006190300E-002  7.063850567217694E-002  7.152702869267720E-002  7.242672795693368E-002 
 7.333774404478663E-002  7.426021930435338E-002  7.519429787427014E-002  7.614012570621362E-002 
 7.709785058770711E-002  7.806762216521161E-002  7.904959196750923E-002  8.004391342937955E-002 
 8.105074191557367E-002  8.207023474509126E-002  8.310255121576082E-002  8.414785262913130E-002 
 8.520630231567536E-002  8.627806566030967E-002  8.736331012823763E-002  8.846220529111502E-002 
 8.957492285354689E-002  9.070163667991639E-002  9.184252282155088E-002  9.299775954423146E-002 
 9.416752735604608E-002  9.535200903559540E-002  9.655138966055186E-002  9.776585663657797E-002 
 9.899559972660987E-002  1.002408110805070E-001  1.015016852650770E-001  1.027784192944766E-001 
 1.040712126609951E-001  1.053802673662266E-001  1.067057879526317E-001  1.080479815354990E-001 
 1.094070578353067E-001  1.107832292104914E-001  1.121767106906307E-001  1.135877200100405E-001 
 1.150164776417978E-001  1.164632068321898E-001  1.179281336355953E-001  1.194114869498082E-001 
 1.209134985518014E-001  1.224344031339437E-001  1.239744383406706E-001  1.255338448056160E-001 
 1.271128661892131E-001  1.287117492167652E-001  1.303307437169984E-001  1.319701026610977E-001 
 1.336300822022328E-001  1.353109417155847E-001  1.370129438388717E-001  1.387363545133884E-001 
 1.404814430255595E-001  1.422484820490148E-001  1.440377476871973E-001  1.458495195165027E-001 
 1.476840806299658E-001  1.495417176814931E-001  1.514227209306529E-001  1.533273842880302E-001 
 1.552560053611494E-001  1.572088855009770E-001  1.591863298490083E-001  1.611886473849454E-001 
 1.632161509749775E-001  1.652691574206650E-001  1.673479875084422E-001  1.694529660597400E-001 
 1.715844219817391E-001  1.737426883187643E-001  1.759281023043213E-001  1.781410054137919E-001 
 1.803817434177893E-001  1.826506664361850E-001  1.849481289928173E-001  1.872744900708843E-001 
 1.896301131690382E-001  1.920153663581798E-001  1.944306223389732E-001  1.968762585000795E-001 
 1.993526569771241E-001  2.018602047124077E-001  2.043992935153651E-001  2.069703201237879E-001 
 2.095736862658148E-001  2.122097987227013E-001  2.148790693923828E-001  2.175819153538314E-001 
 2.203187589322278E-001  2.230900277649497E-001  2.258961548683898E-001  2.287375787056177E-001 
 2.316147432548882E-001  2.345280980790161E-001  2.374780983956204E-001  2.404652051482516E-001 
 2.434898850784178E-001  2.465526107985111E-001  2.496538608656569E-001  2.527941198564881E-001 
 2.559738784428601E-001  2.591936334685221E-001  2.624538880267467E-001  2.657551515389420E-001 
 2.690979398342488E-001  2.724827752301383E-001  2.759101866140284E-001  2.793807095259201E-001 
 2.828948862420798E-001  2.864532658597694E-001  2.900564043830428E-001  2.937048648096258E-001 
 2.973992172188821E-001  3.011400388608921E-001  3.049279142466489E-001  3.087634352393869E-001 
 3.126472011470657E-001  3.165798188160088E-001  3.205619027257286E-001  3.245940750849380E-001 
 3.286769659287707E-001  3.328112132172288E-001  3.369974629348613E-001  3.412363691917039E-001 
 3.455285943254842E-001  3.498748090051105E-001  3.542756923354704E-001  3.587319319635365E-001 
 3.632442241858178E-001  3.678132740571548E-001  3.724397955008845E-001  3.771245114203965E-001 
 3.818681538120832E-001  3.866714638797197E-001  3.915351921502773E-001  3.964600985911923E-001 
 4.014469527291172E-001  4.064965337701554E-001  4.116096307216189E-001  4.167870425153096E-001 
 4.220295781323525E-001  4.273380567296051E-001  4.327133077676470E-001  4.381561711403896E-001 
 4.436674973063094E-001  4.492481474213310E-001  4.548989934733905E-001  4.606209184186785E-001 
 4.664148163196100E-001  4.722815924845206E-001  4.782221636091205E-001  4.842374579197356E-001 
 4.903284153183387E-001  4.964959875294160E-001  5.027411382486748E-001  5.090648432936188E-001 
 5.154680907560287E-001  5.219518811563464E-001  5.285172276000141E-001  5.351651559357719E-001 
 5.418967049159455E-001  5.487129263587609E-001  5.556148853126839E-001  5.626036602228441E-001 
 5.696803430995413E-001  5.768460396888705E-001  5.841018696455045E-001  5.914489667076339E-001 
 5.988884788741237E-001  6.064215685838867E-001  6.140494128975142E-001  6.217732036812013E-001 
 6.295941477929698E-001  6.375134672712502E-001  6.455323995258242E-001  6.536521975311687E-001 
 6.618741300222444E-001  6.701994816927282E-001  6.786295533957579E-001  6.871656623471896E-001 
 6.958091423314111E-001  7.045613439097579E-001  7.134236346315305E-001  7.223973992476860E-001 
 7.314840399272041E-001  7.406849764761754E-001  7.500016465596576E-001  7.594355059263037E-001 
 7.689880286358343E-001  7.786607072893590E-001  7.884550532625937E-001  7.983725969420263E-001 
 8.084148879640315E-001  8.185834954570139E-001  8.288800082865839E-001  8.393060353038168E-001 
 8.498632055966487E-001  8.605531687444137E-001  8.713775950756040E-001  8.823381759288580E-001 
 8.934366239172302E-001  9.046746731958021E-001  9.160540797326340E-001  9.275766215831507E-001 
 9.392440991679607E-001  9.510583355541711E-001  9.630211767402567E-001  9.751344919444880E-001 
 9.874001738970121E-001  9.998201391355906E-001  1.012396328305057E+000  1.025130706460560E+000 
 1.038025263374589E+000  1.051082013847900E+000  1.064302998024319E+000  1.077690281709520E+000 
 1.091245956693816E+000  1.104972141079002E+000  1.118870979609315E+000  1.132944644006554E+000 
 1.147195333309410E+000  1.161625274217086E+000  1.176236721437201E+000  1.191031958038113E+000 
 1.206013295805643E+000  1.221183075604294E+000  1.236543667743027E+000  1.252097472345610E+000 
 1.267846919725659E+000  1.283794470766372E+000  1.299942617305041E+000  1.316293882522419E+000 
 1.332850821336960E+000  1.349616020804040E+000  1.366592100520189E+000  1.383781713032395E+000 
 1.401187544252591E+000  1.418812313877312E+000  1.436658775812672E+000  1.454729718604660E+000 
 1.473027965874848E+000  1.491556376761606E+000  1.510317846366825E+000  1.529315306208304E+000 
 1.548551724677797E+000  1.568030107504822E+000  1.587753498226329E+000  1.607724978662240E+000 
 1.627947669397009E+000  1.648424730267210E+000  1.669159360855258E+000  1.690154800989374E+000 
 1.711414331249788E+000  1.732941273481360E+000  1.754738991312612E+000  1.776810890681298E+000 
 1.799160420366606E+000  1.821791072528014E+000  1.844706383250966E+000  1.867909933099390E+000 
 1.891405347675148E+000  1.915196298184579E+000  1.939286502012095E+000  1.963679723301059E+000 
 1.988379773541930E+000  2.013390512167803E+000  2.038715847157481E+000  2.064359735646073E+000 
 2.090326184543332E+000  2.116619251159732E+000  2.143243043840417E+000  2.170201722607168E+000 
 2.197499499808382E+000  2.225140640777288E+000  2.253129464498404E+000  2.281470344282371E+000 
 2.310167708449324E+000  2.339226041020790E+000  2.368649882420359E+000  2.398443830183115E+000 
 2.428612539674005E+000  2.459160724815274E+000  2.490093158822992E+000  2.521414674952911E+000 
 2.553130167255653E+000  2.585244591341408E+000  2.617762965154286E+000  2.650690369756345E+000 
 2.684031950121549E+000  2.717792915939671E+000  2.751978542430295E+000  2.786594171167123E+000 
 2.821645210912561E+000  2.857137138462886E+000  2.893075499503991E+000  2.929465909477896E+000 
 2.966314054460208E+000  3.003625692048536E+000  3.041406652262170E+000  3.079662838453017E+000 
 3.118400228227988E+000  3.157624874383060E+000  3.197342905848987E+000  3.237560528648998E+000 
 3.278284026868483E+000  3.319519763636882E+000  3.361274182121970E+000  3.403553806536574E+000 
 3.446365243158033E+000  3.489715181360427E+000  3.533610394659783E+000  3.578057741772497E+000 
 3.623064167686971E+000  3.668636704748828E+000  3.714782473759708E+000  3.761508685089889E+000 
 3.808822639804972E+000  3.856731730806628E+000  3.905243443987803E+000  3.954365359402388E+000 
 4.004105152449591E+000  4.054470595073287E+000  4.105469556976341E+000  4.157110006850314E+000 
 4.209400013620572E+000  4.262347747707040E+000  4.315961482300910E+000  4.370249594657273E+000 
 4.425220567404144E+000  4.480882989867860E+000  4.537245559415163E+000  4.594317082812230E+000 
 4.652106477600689E+000  4.710622773491057E+000  4.769875113773628E+000  4.829872756747104E+000 
 4.890625077165283E+000  4.952141567701814E+000  5.014431840433509E+000  5.077505628342221E+000 
 5.141372786835618E+000  5.206043295287173E+000  5.271527258595382E+000  5.337834908762754E+000 
 5.404976606494539E+000  5.472962842817589E+000  5.541804240719668E+000  5.611511556809239E+000 
 5.682095682996269E+000  5.753567648194092E+000  5.825938620042659E+000  5.899219906653582E+000 
 5.973422958376966E+000  6.048559369590619E+000  6.124640880511671E+000  6.201679379030971E+000 
 6.279686902570670E+000  6.358675639965007E+000  6.438657933364915E+000  6.519646280166473E+000 
 6.601653334963620E+000  6.684691911525534E+000  6.768774984798723E+000  6.853915692934468E+000 
 6.940127339341645E+000  7.027423394765381E+000  7.115817499391965E+000  7.205323464980060E+000 
 7.295955277018901E+000  7.387727096913527E+000  7.480653264197481E+000  7.574748298773485E+000 
 7.670026903182105E+000  7.766503964899138E+000  7.864194558661775E+000  7.963113948824017E+000 
 8.063277591741857E+000  8.164701138188260E+000  8.267400435798717E+000  8.371391531547440E+000 
 8.476690674254680E+000  8.583314317125748E+000  8.691279120321742E+000  8.800601953562829E+000 
 8.911299898764142E+000  9.023390252704800E+000  9.136890529730691E+000  9.251818464490983E+000 
 9.368192014709321E+000  9.486029363989710E+000  9.605348924657683E+000  9.726169340637385E+000 
 9.848509490364588E+000  9.972388489736611E+000  1.009782569509915E+001  1.022484070627072E+001 
 1.035345336960527E+001  1.048368378109306E+001  1.061555228950086E+001  1.074907949955143E+001 
 1.088428627514296E+001  1.102119374260925E+001  1.115982329402059E+001  1.130019659052646E+001 