<UPF version="2.0.1">
   <PP_INFO>
         UPF file from ATOMPAW code with following input
           Mg 12
           GGA-PBE loggrid 2001
           3 3 0 0 0 0
           3 1 0
           0 0 0
           c 1s
           v 2s
           v 3s
           v 2p
           v 3p
           1
           2.10
           y
           2
           y
           4
           n
           n
           custom rrkj vanderbiltortho besselshape
           2 0
           2.10
           2.10
           2.10
           2.10
           2.10
           2.10
  </PP_INFO>
  <!--                               -->
  <!-- END OF HUMAN READABLE SECTION -->
  <PP_HEADER generated="Generated using ATOMPAW code"
             author="Savas AGDUK"
             date=" 02/05/2011, 03:08:02.352"
             element="Mg"
             pseudo_type="PAW"
             relativistic="no"
             is_ultrasoft="T"
             is_paw="T"
             is_coulomb="F"
             has_so="F"
             has_wfc="T"
             has_gipaw="F"
             core_correction="T"
             functional="SLA PW PBX PBC"
             z_valence="10.000"
             l_max="1"
             l_max_rho="2"
             mesh_size="  2000"
             number_of_wfc="     6"
             number_of_proj=" 6"
                                    /> 
<PP_MESH dx=" 1.0000000000000E-02" mesh="  1171" xmin="-9.0000000000000E+00" zmesh=" 1.0000000000000E+00">
 <PP_R type="real" size="  1171" columns="3">
  1.23409804086679561E-04  1.24650093237575098E-04  1.25902847501669837E-04
  1.27168192155434101E-04  1.28446253734387799E-04  1.29737160045754042E-04
  1.31041040181239285E-04  1.32358024529943895E-04  1.33688244791400229E-04
  1.35031833988742922E-04  1.36388926482011399E-04  1.37759657981585904E-04
  1.39144165561758647E-04  1.40542587674441700E-04  1.41955064163011146E-04
  1.43381736276293177E-04  1.44822746682688001E-04  1.46278239484437121E-04
  1.47748360232033638E-04  1.49233255938777386E-04  1.50733075095476504E-04
  1.52247967685296715E-04  1.53778085198758940E-04  1.55323580648889854E-04
  1.56884608586522415E-04  1.58461325115751255E-04  1.60053887909543179E-04
  1.61662456225504774E-04  1.63287190921808064E-04  1.64928254473276656E-04
  1.66585810987633539E-04  1.68260026221910838E-04  1.69951067599027504E-04
  1.71659104224530459E-04  1.73384306903505572E-04  1.75126848157658422E-04
  1.76886902242566588E-04  1.78664645165105241E-04  1.80460254701048437E-04
  1.82273910412845448E-04  1.84105793667579194E-04  1.85956087655101689E-04
  1.87824977406353616E-04  1.89712649811867539E-04  1.91619293640457025E-04
  1.93545099558093829E-04  1.95490260146974912E-04  1.97454969924779446E-04
  1.99439425364122817E-04  2.01443824912202690E-04  2.03468369010644169E-04
  2.05513260115544280E-04  2.07578702717717522E-04  2.09664903363145387E-04
  2.11772070673630920E-04  2.13900415367661485E-04  2.16050150281479393E-04
  2.18221490390367823E-04  2.20414652830147140E-04  2.22629856918888969E-04
  2.24867324178848195E-04  2.27127278358615355E-04  2.29409945455491727E-04
  2.31715553738089683E-04  2.34044333769157939E-04  2.36396518428640720E-04
  2.38772342936964142E-04  2.41172044878558851E-04  2.43595864225618791E-04
  2.46044043362098530E-04  2.48516827107951848E-04  2.51014462743614456E-04
  2.53537200034730393E-04  2.56085291257131557E-04  2.58658991222063511E-04
  2.61258557301667540E-04  2.63884249454717933E-04  2.66536330252618056E-04
  2.69215064905657837E-04  2.71920721289534758E-04  2.74653569972142537E-04
  2.77413884240625716E-04  2.80201940128712017E-04  2.83018016444313582E-04
  2.85862394797408695E-04  2.88735359628203010E-04  2.91637198235573708E-04
  2.94568200805799820E-04  2.97528660441581335E-04  3.00518873191347893E-04
  3.03539138078866776E-04  3.06589757133143685E-04  3.09671035418626226E-04
  3.12783281065710653E-04  3.15926805301555268E-04  3.19101922481203261E-04
  3.22308950119019097E-04  3.25548208920437964E-04  3.28820022814039950E-04
  3.32124718983940954E-04  3.35462627902511853E-04  3.38834083363426122E-04
  3.42239422515039382E-04  3.45678985894104941E-04  3.49153117459826421E-04
  3.52662164628255749E-04  3.56206478307034358E-04  3.59786412930483061E-04
  3.63402326495047823E-04  3.67054580595098379E-04  3.70743540459088220E-04
  3.74469574986078331E-04  3.78233056782625757E-04  3.82034362200046711E-04
  3.85873871372051022E-04  3.89751968252754805E-04  3.93669040655078291E-04
  3.97625480289525845E-04  4.01621682803358080E-04  4.05658047820156510E-04
  4.09734978979786808E-04  4.13852883978761644E-04  4.18012174611012927E-04
  4.22213266809070339E-04  4.26456580685653829E-04  4.30742540575687529E-04
  4.35071575078732121E-04  4.39444117101845462E-04  4.43860603902874020E-04
  4.48321477134177551E-04  4.52827182886796954E-04  4.57378171735062732E-04
  4.61974898781651296E-04  4.66617823703098413E-04  4.71307410795765371E-04
  4.76044129022269334E-04  4.80828452058380731E-04  4.85660858340389225E-04
  4.90541831112950534E-04  4.95471858477409752E-04  5.00451433440610833E-04
  5.05481053964200303E-04  5.10561223014421796E-04  5.15692448612413814E-04
  5.20875243885012191E-04  5.26110127116063758E-04  5.31397621798252937E-04
  5.36738256685454830E-04  5.42132565845609049E-04  5.47581088714126107E-04
  5.53084370147833627E-04  5.58642960479461084E-04  5.64257415572673796E-04
  5.69928296877660404E-04  5.75656171487276113E-04  5.81441612193755574E-04
  5.87285197545991283E-04  5.93187511907387042E-04  5.99149145514298086E-04
  6.05170694535053203E-04  6.11252761129572300E-04  6.17395953509583973E-04
  6.23600885999444471E-04  6.29868179097574019E-04  6.36198459538505701E-04
  6.42592360355557883E-04  6.49050520944141097E-04  6.55573587125695832E-04
  6.62162211212276395E-04  6.68817052071781718E-04  6.75538775193844387E-04
  6.82328052756376582E-04  6.89185563692793109E-04  6.96111993759902618E-04
  7.03108035606482855E-04  7.10174388842549028E-04  7.17311760109313481E-04
  7.24520863149850621E-04  7.31802418880472772E-04  7.39157155462819644E-04
  7.46585808376679203E-04  7.54089120493534092E-04  7.61667842150847265E-04
  7.69322731227100806E-04  7.77054553217581558E-04  7.84864081310931647E-04
  7.92752096466469119E-04  8.00719387492281401E-04  8.08766751124111410E-04
  8.16894992105029073E-04  8.25104923265904599E-04  8.33397365606696437E-04
  8.41773148378549010E-04  8.50233109166719436E-04  8.58778093974336488E-04
  8.67408957307002509E-04  8.76126562258241668E-04  8.84931780595814592E-04
  8.93825492848893534E-04  9.02808588396113577E-04  9.11881965554516244E-04
  9.21046531669378462E-04  9.30303203204949016E-04  9.39652905836096150E-04
  9.49096574540872744E-04  9.58635153694019858E-04  9.68269597161402584E-04
  9.78000868395394575E-04  9.87829940531229468E-04  9.97757796484312039E-04
  1.00778542904851045E-03  1.01791384099543763E-03  1.02814404517472978E-03
  1.03847706461532817E-03  1.04891393262778929E-03  1.05945569290761014E-03
  1.07010339963960438E-03  1.08085811760331844E-03  1.09172092227951081E-03
  1.10269289995770185E-03  1.11377514784480325E-03  1.12496877417483736E-03
  1.13627489831976693E-03  1.14769465090142639E-03  1.15922917390459137E-03
  1.17087962079117443E-03  1.18264715661557272E-03  1.19453295814117523E-03
  1.20653821395804036E-03  1.21866412460175226E-03  1.23091190267348208E-03
  1.24328277296124152E-03  1.25577797256236942E-03  1.26839875100723883E-03
  1.28114637038421130E-03  1.29402210546584800E-03  1.30702724383638630E-03
  1.32016308602050264E-03  1.33343094561335935E-03  1.34683214941197461E-03
  1.36036803754789387E-03  1.37403996362121176E-03  1.38784929483592892E-03
  1.40179741213667438E-03  1.41588571034680219E-03  1.43011559830787441E-03
  1.44448849902054327E-03  1.45900584978685978E-03  1.47366910235399609E-03
  1.48847972305942941E-03  1.50343919297757237E-03  1.51854900806788350E-03
  1.53381067932446304E-03  1.54922573292715624E-03  1.56479571039416657E-03
  1.58052216873621858E-03  1.59640668061224872E-03  1.61245083448668361E-03
  1.62865623478828064E-03  1.64502450207057471E-03  1.66155727317393392E-03
  1.67825620138924636E-03  1.69512295662325053E-03  1.71215922556552285E-03
  1.72936671185715718E-03  1.74674713626111968E-03  1.76430223683433549E-03
  1.78203376910149162E-03  1.79994350623059111E-03  1.81803323921027131E-03
  1.83630477702890712E-03  1.85475994685550317E-03  1.87340059422242506E-03
  1.89222858320993968E-03  1.91124579663263768E-03  1.93045413622770930E-03
  1.94985552284512062E-03  1.96945189663970139E-03  1.98924521726516349E-03
  2.00923746407006025E-03  2.02943063629573575E-03  2.04982675327623721E-03
  2.07042785464026059E-03  2.09123600051511031E-03  2.11225327173271415E-03
  2.13348177003770808E-03  2.15492361829761319E-03  2.17658096071512552E-03
  2.19845596304253134E-03  2.22055081279829564E-03  2.24286771948580335E-03
  2.26540891481432196E-03  2.28817665292216929E-03  2.31117321060212919E-03
  2.33440088752913302E-03  2.35786200649023290E-03  2.38155891361687072E-03
  2.40549397861951168E-03  2.42966959502459749E-03  2.45408818041391698E-03
  2.47875217666635849E-03  2.50366405020209992E-03  2.52882629222925563E-03
  2.55424141899299835E-03  2.57991197202717994E-03  2.60584051840850048E-03
  2.63202965101320052E-03  2.65848198877636707E-03  2.68520017695382052E-03
  2.71218688738664344E-03  2.73944481876836838E-03  2.76697669691484830E-03
  2.79478527503684371E-03  2.82287333401533627E-03  2.85124368267963444E-03
  2.87989915808824302E-03  2.90884262581258407E-03  2.93807698022355030E-03
  2.96760514478094407E-03  2.99743007232582863E-03  3.02755474537581533E-03
  3.05798217642330727E-03  3.08871540823677177E-03  3.11975751416499478E-03
  3.15111159844444141E-03  3.18278079650966689E-03  3.21476827530686998E-03
  3.24707723361058629E-03  3.27971090234357304E-03  3.31267254489989258E-03
  3.34596545747127506E-03  3.37959296937671546E-03  3.41355844339543031E-03
  3.44786527610312652E-03  3.48251689821166320E-03  3.51751677491212843E-03
  3.55286840622135846E-03  3.58857532733194767E-03  3.62464110896575575E-03
  3.66106935773100831E-03  3.69786371648293203E-03  3.73502786468806738E-03
  3.77256551879220524E-03  3.81048043259203705E-03  3.84877639761053948E-03
  3.88745724347613029E-03  3.92652683830562420E-03  3.96598908909106835E-03
  4.00584794209042031E-03  4.04610738322219894E-03  4.08677143846406660E-03
  4.12784417425543591E-03  4.16932969790411150E-03  4.21123215799703524E-03
  4.25355574481512538E-03  4.29630469075234327E-03  4.33948327073889906E-03
  4.38309580266877611E-03  4.42714664783151138E-03  4.47164021134833188E-03
  4.51658094261266595E-03  4.56197333573509205E-03  4.60782192999275187E-03
  4.65413131028327189E-03  4.70090610758328031E-03  4.74815099941147765E-03
  4.79587071029642133E-03  4.84407001224896726E-03  4.89275372523947580E-03
  4.94192671767981762E-03  4.99159390691021696E-03  5.04176025969097896E-03
  5.09243079269919557E-03  5.14361057303038341E-03  5.19530471870523116E-03
  5.24751839918138462E-03  5.30025683587040213E-03  5.35352530265990282E-03
  5.40732912644095991E-03  5.46167368764077874E-03  5.51656442076077676E-03
  5.57200681491999781E-03  5.62800641440406538E-03  5.68456881921959502E-03
  5.74169968565420210E-03  5.79940472684214135E-03  5.85768971333561726E-03
  5.91656047368185715E-03  5.97602289500594273E-03  6.03608292359956999E-03
  6.09674656551563790E-03  6.15801988716889719E-03  6.21990901594257281E-03
  6.28242014080111766E-03  6.34555951290910990E-03  6.40933344625638311E-03
  6.47374831828940490E-03  6.53881057054906973E-03  6.60452670931481120E-03
  6.67090330625527434E-03  6.73794699908546700E-03  6.80566449223054312E-03
  6.87406255749625512E-03  6.94314803474611452E-03  7.01292783258542461E-03
  7.08340892905211846E-03  7.15459837231458527E-03  7.22650328137646250E-03
  7.29913084678858286E-03  7.37248833136801198E-03  7.44658307092433813E-03
  7.52142247499327024E-03  7.59701402757756699E-03  7.67336528789548927E-03
  7.75048389113669207E-03  7.82837754922577345E-03  7.90705405159344149E-03
  7.98652126595550231E-03  8.06678713909961438E-03  8.14785969767998879E-03
  8.22974704902003015E-03  8.31245738192311866E-03  8.39599896749147062E-03
  8.48038015995326855E-03  8.56560939749806058E-03  8.65169520312063407E-03
  8.73864618547329046E-03  8.82647103972672951E-03  8.91517854843955349E-03
  9.00477758243655932E-03  9.09527710169581553E-03  9.18668615624467291E-03
  9.27901388706474373E-03  9.37226952700605763E-03  9.46646240171032313E-03
  9.56160193054351321E-03  9.65769762753777676E-03  9.75475910234290325E-03
  9.85279606118725712E-03  9.95181830784841980E-03  1.00518357446335860E-02
  1.01528583733697629E-02  1.02548962964040223E-02  1.03579597176136958E-02
  1.04620589434268035E-02  1.05672043838526547E-02  1.06734065535229253E-02
  1.07806760727430836E-02  1.08890236685544508E-02  1.09984601758068810E-02
  1.11089965382423061E-02  1.12206438095890839E-02  1.13334131546673975E-02
  1.14473158505057106E-02  1.15623632874685359E-02  1.16785669703954424E-02
  1.17959385197515722E-02  1.19144896727896472E-02  1.20342322847237747E-02
  1.21551783299149348E-02  1.22773399030684481E-02  1.24007292204434058E-02
  1.25253586210743850E-02  1.26512405680053053E-02  1.27783876495357607E-02
  1.29068125804798726E-02  1.30365282034377358E-02  1.31675474900797510E-02
  1.32998835424437672E-02  1.34335495942453139E-02  1.35685590122009338E-02
  1.37049252973649449E-02  1.38426620864795010E-02  1.39817831533383084E-02
  1.41223024101639616E-02  1.42642339089992555E-02  1.44075918431123499E-02
  1.45523905484161355E-02  1.46986445049017839E-02  1.48463683380868315E-02
  1.49955768204777032E-02  1.51462848730469918E-02  1.52985075667255183E-02
  1.54522601239095152E-02  1.56075579199828306E-02  1.57644164848545001E-02
  1.59228515045116981E-02  1.60828788225884332E-02  1.62445144419498706E-02
  1.64077745262926449E-02  1.65726754017612547E-02  1.67392335585806323E-02
  1.69074656527052787E-02  1.70773885074847927E-02  1.72490191153462785E-02
  1.74223746394935146E-02  1.75974724156233928E-02  1.77743299536594415E-02
  1.79529649395028662E-02  1.81333952368010753E-02  1.83156388887341787E-02
  1.84997141198192418E-02  1.86856393377327797E-02  1.88734331351514927E-02
  1.90631142916116367E-02  1.92547017753869204E-02  1.94482147453854011E-02
  1.96436725530652993E-02  1.98410947443702877E-02  2.00405010616840143E-02
  2.02419114458043982E-02  2.04453460379376631E-02  2.06508251817125663E-02
  2.08583694252147157E-02  2.10679995230414231E-02  2.12797364383771753E-02
  2.14936013450899230E-02  2.17096156298485707E-02  2.19278008942616100E-02
  2.21481789570373254E-02  2.23707718561656013E-02  2.25956018511218638E-02
  2.28226914250929704E-02  2.30520632872255812E-02  2.32837403748970100E-02
  2.35177458560091070E-02  2.37541031313049968E-02  2.39928358367091851E-02
  2.42339678456911234E-02  2.44775232716526701E-02  2.47235264703393881E-02
  2.49720020422761653E-02  2.52229748352272229E-02  2.54764699466810164E-02
  2.57325127263599400E-02  2.59911287787553576E-02  2.62523439656879715E-02
  2.65161844088941806E-02  2.67826764926381751E-02  2.70518468663504021E-02
  2.73237224472925692E-02  2.75983304232492871E-02  2.78756982552470153E-02
  2.81558536803000956E-02  2.84388247141845185E-02  2.87246396542394332E-02
  2.90133270821970532E-02  2.93049158670407456E-02  2.95994351678920131E-02
  2.98969144369263216E-02  3.01973834223185009E-02  3.05008721712174830E-02
  3.08074110327510899E-02  3.11170306610608731E-02  3.14297620183677101E-02
  3.17456363780679388E-02  3.20646853278607827E-02  3.23869407729070538E-02
  3.27124349390198188E-02  3.30412003758869324E-02  3.33732699603261004E-02
  3.37086768995724165E-02  3.40474547345993445E-02  3.43896373434727093E-02
  3.47352589447385493E-02  3.50843541008450388E-02  3.54369577215986400E-02
  3.57931050676552967E-02  3.61528317540464120E-02  3.65161737537404163E-02
  3.68831674012400149E-02  3.72538493962158088E-02  3.76282568071761997E-02
  3.80064270751743344E-02  3.83883980175520750E-02  3.87742078317220087E-02
  3.91638950989870657E-02  3.95574987883987456E-02  3.99550582606539167E-02
  4.03566132720311471E-02  4.07622039783662113E-02  4.11718709390677534E-02
  4.15856551211731817E-02  4.20035979034455512E-02  4.24257410805113852E-02
  4.28521268670402009E-02  4.32827979019659165E-02  4.37177972527509409E-02
  4.41571684196928604E-02  4.46009553402745146E-02  4.50492023935578217E-02
  4.55019544046215696E-02  4.59592566490442042E-02  4.64211548574312502E-02
  4.68876952199885066E-02  4.73589243911409288E-02  4.78348894941983682E-02
  4.83156381260677684E-02  4.88012183620129825E-02  4.92916787604621709E-02
  4.97870683678639445E-02  5.02874367235918648E-02  5.07928338648985234E-02
  5.13033103319191358E-02  5.18189171727258327E-02  5.23397059484323815E-02
  5.28657287383503885E-02  5.33970381451971052E-02  5.39336873003560188E-02
  5.44757298691898595E-02  5.50232200564072585E-02  5.55762126114830862E-02
  5.61347628341337251E-02  5.66989265798469033E-02  5.72687602654673861E-02
  5.78443208748384841E-02  5.84256659645008281E-02  5.90128536694478414E-02
  5.96059427089393398E-02  6.02049923923735700E-02  6.08100626252179727E-02
  6.14212139150001266E-02  6.20385073773582901E-02  6.26620047421531795E-02
  6.32917683596407321E-02  6.39278612067075702E-02  6.45703468931684704E-02
  6.52192896681275530E-02  6.58747544264029761E-02  6.65368067150168552E-02
  6.72055127397497565E-02  6.78809393717614701E-02  6.85631541542779388E-02
  6.92522253093459939E-02  6.99482217446553561E-02  7.06512130604296240E-02
  7.13612695563860810E-02  7.20784622387661000E-02  7.28028628274355882E-02
  7.35345437630571253E-02  7.42735782143339046E-02  7.50200400853269778E-02
  7.57740040228454814E-02  7.65355454239114857E-02  7.73047404432997826E-02
  7.80816660011531688E-02  7.88663997906749459E-02  7.96590202858980106E-02
  8.04596067495324668E-02  8.12682392408917015E-02  8.20849986238988000E-02
  8.29099665751726611E-02  8.37432255921959912E-02  8.45848590015647328E-02
  8.54349509673212326E-02  8.62935864993704949E-02  8.71608514619813396E-02
  8.80368325823725900E-02  8.89216174593863429E-02  8.98152945722476281E-02
  9.07179532894125534E-02  9.16296838775048778E-02  9.25505775103432904E-02
  9.34807262780584652E-02  9.44202231963023886E-02  9.53691622155496549E-02
  9.63276382304930345E-02  9.72957470895327581E-02  9.82735856043615019E-02
  9.92612515596456996E-02  1.00258843722803748E-01  1.01266461853883397E-01
  1.02284206715537437E-01  1.03312180083100238E-01  1.04350484754765035E-01
  1.05399224561864333E-01  1.06458504379252805E-01  1.07528430135794995E-01
  1.08609108824958014E-01  1.09700648515511409E-01  1.10803158362333870E-01
  1.11916748617328934E-01  1.13041530640449889E-01  1.14177616910836499E-01
  1.15325121038062514E-01  1.16484157773497021E-01  1.17654843021779240E-01
  1.18837293852409653E-01  1.20031628511456726E-01  1.21237966433381736E-01
  1.22456428252981947E-01  1.23687135817454830E-01  1.24930212198582413E-01
  1.26185781705038719E-01  1.27453969894820801E-01  1.28734903587804234E-01
  1.30028710878425907E-01  1.31335521148493034E-01  1.32655465080121771E-01
  1.33988674668804986E-01  1.35335283236612702E-01  1.36695425445523822E-01
  1.38069237310892878E-01  1.39456856215050967E-01  1.40858420921045002E-01
  1.42274071586513534E-01  1.43703949777702983E-01  1.45148198483623758E-01
  1.46606962130350155E-01  1.48080386595462438E-01  1.49568619222635119E-01
  1.51071808836370891E-01  1.52590105756883893E-01  1.54123661815131402E-01
  1.55672630367997389E-01  1.57237166313627663E-01  1.58817426106920706E-01
  1.60413567775172738E-01  1.62025750933880719E-01  1.63654136802704131E-01
  1.65298888221586560E-01  1.66960169667040692E-01  1.68638147268595467E-01
  1.70332988825409509E-01  1.72044863823050564E-01  1.73773943450445140E-01
  1.75520400616996836E-01  1.77284409969877876E-01  1.79066147911493279E-01
  1.80865792617122101E-01  1.82683524052734608E-01  1.84519523992989348E-01
  1.86373976039410028E-01  1.88247065638746797E-01  1.90138980101520499E-01
  1.92049908620754217E-01  1.93980042290891969E-01  1.95929574126909367E-01
  1.97898699083614654E-01  1.99887614075144604E-01  2.01896517994655467E-01
  2.03925611734213474E-01  2.05975098204883439E-01  2.08045182357020408E-01
  2.10136071200764829E-01  2.12247973826743097E-01  2.14381101426977944E-01
  2.16535667316007013E-01  2.18711886952214857E-01  2.20909977959378251E-01
  2.23130160148429818E-01  2.25372655539438665E-01  2.27637688383812847E-01
  2.29925485186723899E-01  2.32236274729758829E-01  2.34570288093797624E-01
  2.36927758682121875E-01  2.39308922243754607E-01  2.41714016897036449E-01
  2.44143283153437057E-01  2.46596963941606601E-01  2.49075304631668271E-01
  2.51578553059756516E-01  2.54106959552800271E-01  2.56660776953556047E-01
  2.59240260645891618E-01  2.61845668580326041E-01  2.64477261299823962E-01
  2.67135301965850280E-01  2.69820056384686979E-01  2.72531793034012648E-01
  2.75270783089752336E-01  2.78037300453194081E-01  2.80831621778379892E-01
  2.83654026499770451E-01  2.86504796860190092E-01  2.89384217939050559E-01
  2.92292577680859533E-01  2.95230166924014270E-01  2.98197279429887385E-01
  3.01194211912202026E-01  3.04221264066704189E-01  3.07278738601131307E-01
  3.10366941265485030E-01  3.13486180882605270E-01  3.16636769379053384E-01
  3.19819021816304006E-01  3.23033256422252946E-01  3.26279794623039465E-01
  3.29558961075189227E-01  3.32871083698079662E-01  3.36216493706733399E-01
  3.39595525644939111E-01  3.43008517418706860E-01  3.46455810330057568E-01
  3.49937749111155438E-01  3.53454681958780159E-01  3.57006960569147269E-01
  3.60594940173078471E-01  3.64218979571523382E-01  3.67879441171442334E-01
  3.71576691022045602E-01  3.75311098851399405E-01  3.79083038103398551E-01
  3.82892885975112396E-01  3.86741023454501509E-01  3.90627835358521303E-01
  3.94553710371601252E-01  3.98519041084514192E-01  4.02524224033635913E-01
  4.06569659740598943E-01  4.10655752752345282E-01  4.14782911681581767E-01
  4.18951549247639332E-01  4.23162082317749044E-01  4.27414931948726817E-01
  4.31710523429079729E-01  4.36049286321535556E-01  4.40431654505999137E-01
  4.44858066222940940E-01  4.49328964117221286E-01  4.53844795282356217E-01
  4.58406011305223848E-01  4.63013068311228293E-01  4.67666427009909347E-01
  4.72366552741014689E-01  4.77113915521034271E-01  4.81908990090202216E-01
  4.86752255959971347E-01  4.91644197460965549E-01  4.96585303791409860E-01
  5.01576069066055785E-01  5.06616992365589769E-01  5.11708577786542551E-01
  5.16851334491699177E-01  5.22045776761015823E-01  5.27292424043048213E-01
  5.32591801006897736E-01  5.37944437594674918E-01  5.43350869074500142E-01
  5.48811636094026611E-01  5.54327284734507097E-01  5.59898366565402039E-01
  5.65525438699536975E-01  5.71209063848814647E-01  5.76949810380486316E-01
  5.82748252373990194E-01  5.88604969678355627E-01  5.94520547970194602E-01
  6.00495578812266118E-01  6.06530659712633424E-01  6.12626394184415890E-01
  6.18783391806140615E-01  6.25002268282700446E-01  6.31283645506926505E-01
  6.37628151621773775E-01  6.44036421083141630E-01  6.50509094723316750E-01
  6.57046819815056860E-01  6.63650250136319286E-01  6.70320046035639105E-01
  6.77056874498164318E-01  6.83861409212356497E-01  6.90734330637355232E-01
  6.97676326071031472E-01  7.04688089718713662E-01  7.11770322762609764E-01
  7.18923733431926171E-01  7.26149037073690717E-01  7.33446956224288904E-01
  7.40818220681718653E-01  7.48263567578565825E-01  7.55783741455725910E-01
  7.63379494336853481E-01  7.71051585803566475E-01  7.78800783071404878E-01
  7.86627861066553247E-01  7.94533602503333714E-01  8.02518797962477937E-01
  8.10584245970187856E-01  8.18730753077982487E-01  8.26959133943362734E-01
  8.35270211411272223E-01  8.43664816596383704E-01  8.52143788966211235E-01
  8.60707976425057475E-01  8.69358235398805301E-01  8.78095430920562192E-01
  8.86920436717158256E-01  8.95834135296528777E-01  9.04837418035959851E-01
  9.13931185271228297E-01  9.23116346386635755E-01  9.32393819905947940E-01
  9.41764533584248276E-01  9.51229424500715015E-01  9.60789439152324065E-01
  9.70445533548508821E-01  9.80198673306755697E-01  9.90049833749168218E-01
  1.00000000000000000E+00  1.01005016708416795E+00  1.02020134002675533E+00
  1.03045453395351627E+00  1.04081077419238910E+00  1.05127109637602478E+00
  1.06183654654536008E+00  1.07250818125421676E+00  1.08328706767495864E+00
  1.09417428370521019E+00  1.10517091807564727E+00  1.11627807045887062E+00
  1.12749685157937685E+00  1.13882838332462266E+00  1.15027379885722802E+00
  1.16183424272828351E+00  1.17351087099181051E+00  1.18530485132036545E+00
  1.19721736312180993E+00  1.20924959765725082E+00  1.22140275816017119E+00
  1.23367805995674429E+00  1.24607673058738166E+00  1.25860000992947829E+00
  1.27124915032140495E+00  1.28402541668774139E+00  1.29693008666577159E+00
  1.30996445073324685E+00  1.32312981233743598E+00  1.33642748802547340E+00
  1.34985880757600407E+00  1.36342511413217848E+00  1.37712776433595740E+00
  1.39096812846378026E+00  1.40494759056359353E+00  1.41906754859325668E+00
  1.43332941456033947E+00  1.44773461466332587E+00  1.46228458943422557E+00
  1.47698079388264336E+00  1.49182469764127079E+00  1.50681778511285369E+00
  1.52196155561863367E+00  1.53725752354828105E+00  1.55270721851133531E+00
  1.56831218549017049E+00  1.58407398499448315E+00  1.59999419321736136E+00
  1.61607440219289411E+00  1.63231621995537934E+00  1.64872127070012819E+00
  1.66529119494588596E+00  1.68202764969888574E+00  1.69893230861854949E+00
  1.71600686218486009E+00  1.73325301786739638E+00  1.75067250029610189E+00
  1.76826705143373575E+00  1.78603843075007340E+00  1.80398841539785670E+00
  1.82211880039050822E+00  1.84043139878163631E+00  1.85892804184634386E+00
  1.87761057926434449E+00  1.89648087930495235E+00  1.91554082901389666E+00
  1.93479233440203169E+00  1.95423732063593936E+00  1.97387773223044705E+00
  1.99371553324308137E+00  2.01375270747047885E+00  2.03399125864675234E+00
  2.05443321064388895E+00  2.07508060767412372E+00  2.09593551449436521E+00
  2.11700001661267478E+00  2.13827622049681798E+00  2.15976625378491427E+00
  2.18147226549819973E+00  2.20339642625593868E+00  2.22554092849246921E+00
  2.24790798667647262E+00  2.27049983753240658E+00  2.29331874026418303E+00
  2.31636697678109149E+00  2.33964685192599031E+00  2.36316069370579340E+00
  2.38691085352427912E+00  2.41089970641721152E+00  2.43512965128987613E+00
  2.45960311115695074E+00  2.48432253338481690E+00  2.50929038993629749E+00
  2.53450917761785410E+00  2.55998141832927040E+00  2.58570965931584906E+00
  2.61169647342312006E+00  2.63794445935415434E+00  2.66445624192941821E+00
  2.69123447234926294E+00  2.71828182845904509E+00  2.74560101501691589E+00
  2.77319476396429687E+00  2.80106583469907733E+00  2.82921701435156203E+00
  2.85765111806316563E+00  2.88637098926795987E+00  2.91537949997699730E+00
  2.94467955106552415E+00  2.97427407256306475E+00  3.00416602394643206E+00
  3.03435839443567401E+00  3.06485420329300506E+00  3.09565650012471405E+00
  3.12676836518615753E+00  3.15819290968976896E+00  3.18993327611618493E+00
  3.22199263852849960E+00  3.25437420288966983E+00  3.28708120738311660E+00
  3.32011692273655123E+00  3.35348465254902672E+00  3.38718773362133696E+00
  3.42122953628967519E+00  3.45561346476267639E+00  3.49034295746184142E+00
  3.52542148736538152E+00  3.56085256235551917E+00  3.59663972556927902E+00
  3.63278655575281251E+00  3.66929666761924667E+00  3.70617371221020075E+00
  3.74342137726086355E+00  3.78104338756878100E+00  3.81904350536633519E+00
  3.85742553069697314E+00  3.89619330179521217E+00  3.93535069547047689E+00
  3.97490162749475129E+00  4.01485005299420372E+00  4.05519996684467632E+00
  4.09595540407117653E+00  4.13712044025139214E+00  4.17869919192324524E+00
  4.22069581699655050E+00  4.26311451516882212E+00  4.30595952834520990E+00
  4.34923514106274389E+00  4.39294568091875881E+00  4.43709551900366517E+00
  4.48168907033806452E+00  4.52673079431425140E+00  4.57222519514215708E+00
  4.61817682229977766E+00  4.66459027098813017E+00  4.71147018259074457E+00
  4.75882124513785687E+00  4.80664819377517993E+00  4.85495581123743403E+00
  4.90374892832662113E+00  4.95303242439511315E+00  5.00281122783358523E+00
  5.05309031656387209E+00  5.10387471853672992E+00  5.15516951223468389E+00
  5.20697982717985042E+00  5.25931084444689922E+00  5.31216779718116694E+00
  5.36555597112197358E+00  5.41948070513120328E+00  5.47394739172720524E+00
  5.52896147762400858E+00  5.58452846427605731E+00  5.64065390842832315E+00
  5.69734342267199256E+00  5.75460267600573072E+00  5.81243739440258711E+00
  5.87085336138259883E+00  5.92985641859114221E+00  5.98945246638311879E+00
  6.04964746441295009E+00  6.11044743223061282E+00  6.17185844988355470E+00
  6.23388665852471746E+00  6.29653826102665626E+00  6.35981952260182926E+00
  6.42373677142913024E+00  6.48829639928671753E+00  6.55350486219115336E+00
  6.61936868104308118E+00  6.68589444227927210E+00  6.75308879853128730E+00
  6.82095846929074945E+00  6.88951024158129144E+00  6.95875097063726855E+00
  7.02868758058930077E+00  7.09932706515663892E+00  7.17067648834661764E+00
  7.24274298516101567E+00  7.31553376230956776E+00  7.38905609893065041E+00
  7.46331734731919294E+00  7.53832493366191869E+00  7.61408635877996964E+00
  7.69060919887900507E+00  7.76790110630677777E+00  7.84596981031845253E+00
  7.92482311784949012E+00  8.00446891429635343E+00  8.08491516430505897E+00
  8.16616991256764635E+00  8.24824128462665662E+00  8.33113748768770002E+00
  8.41486681144013637E+00  8.49943762888612753E+00  8.58485839717789645E+00
  8.67113765846345608E+00  8.75828404074083444E+00  8.84630625872087961E+00
  8.93521311469874391E+00  9.02501349943413089E+00  9.11571639304031400E+00
  9.20733086588225724E+00  9.29986607948358923E+00  9.39333128744278412E+00