<UPF version="2.0.1">
  <PP_INFO>
    Generated using "atomic" code by A. Dal Corso  v.5.1.2
    Author: ADC
    Generation date: 30Jul2016
    Pseudopotential type: USPP
    Element: Nb
    Functional: PBE

    Suggested minimum cutoff for wavefunctions:  47. Ry
    Suggested minimum cutoff for charge density: 266. Ry
    The Pseudo was generated with a Scalar-Relativistic Calculation
    Local Potential by smoothing AE potential with Bessel fncs, cutoff radius:   1.5000
    Pseudopotential contains additional information for GIPAW reconstruction.

    Valence configuration: 
    nl pn  l   occ       Rcut    Rcut US       E pseu
    4S  1  0  2.00      1.100      1.150    -4.470840
    5S  2  0  2.00      1.100      1.150    -0.344212
    4P  2  1  6.00      1.100      1.500    -2.705880
    5P  3  1  0.00      1.100      1.500    -0.107291
    4D  3  2  3.00      1.300      1.700    -0.340644
    Generation configuration:
    4S  1  0  2.00      1.100      1.150    -4.470890
    5S  2  0  2.00      1.100      1.150    -0.344225
    4P  2  1  6.00      1.100      1.500    -2.705921
    5P  3  1  0.00      1.100      1.500    -0.107298
    4D  3  2  3.00      1.300      1.700    -0.340671
    4D  3  2  0.00      1.300      1.700     1.000000

    Pseudization used: troullier-martins
<PP_INPUTFILE>
 &input
   title='Nb',
   zed=41.,
   rel=1,
   config='[Kr] 5s2 5p0 4d3',
   iswitch=3,
   dft='PBE'
 /
 &inputp
   lpaw=.false.,
   pseudotype=3,
   file_pseudopw='Nb.pbe-spn-rrkjus_psl.1.0.0.UPF',
   author='ADC',
   lloc=-1,
   rcloc=1.5,
   which_augfun='PSQ',
   rmatch_augfun_nc=.true.,
   nlcc=.true.,
   new_core_ps=.true.,
   rcore=1.2,
   tm=.true.
 /
6
4S  1  0  2.00  0.00  1.10  1.15  0.0
5S  2  0  2.00  0.00  1.10  1.15  0.0
4P  2  1  6.00  0.00  1.10  1.50  0.0
5P  3  1  0.00  0.00  1.10  1.50  0.0
4D  3  2  3.00  0.00  1.30  1.70  0.0
4D  3  2  0.00  1.00  1.30  1.70  0.0
</PP_INPUTFILE>
  </PP_INFO>
  <!--                               -->
  <!-- END OF HUMAN READABLE SECTION -->
  <!--                               -->
  <PP_HEADER generated='Generated using "atomic" code by A. Dal Corso  v.5.1.2'
             author="ADC"
             date="30Jul2016"
             comment=""
             element="Nb"
             pseudo_type="USPP"
             relativistic="scalar"
             is_ultrasoft="T"
             is_paw="F"
             is_coulomb="F"
             has_so="F"
             has_wfc="F"
             has_gipaw="T"
             paw_as_gipaw="F"
             core_correction="T"
             functional="PBE"
             z_valence="1.300000000000000E+001"
             total_psenergy="-1.173280285498014E+002"
             wfc_cutoff="4.663043301431455E+001"
             rho_cutoff="2.658375704439480E+002"
             l_max="2"
             l_max_rho="4"
             l_local="-1"
             mesh_size="1227"
             number_of_wfc="5"
             number_of_proj="6"/>
  <PP_MESH dx="1.250000000000000E-002" mesh="1227" xmin="-7.000000000000000E+000" rmax="1.000000000000000E+002"
zmesh="4.100000000000000E+001">
    <PP_R type="real" size="1227" columns="4">
 2.224102355011015E-005  2.252078118704932E-005  2.280405774186786E-005  2.309089747710376E-005 
 2.338134521204927E-005  2.367544632975388E-005  2.397324678411558E-005  2.427479310706125E-005 
 2.458013241581733E-005  2.488931242027206E-005  2.520238143043017E-005  2.551938836396143E-005 
 2.584038275384415E-005  2.616541475610480E-005  2.649453515765507E-005  2.682779538422727E-005 
 2.716524750840984E-005  2.750694425778372E-005  2.785293902316116E-005  2.820328586692824E-005 
 2.855803953149206E-005  2.891725544783446E-005  2.928098974417319E-005  2.964929925473207E-005 
 3.002224152862149E-005  3.039987483883048E-005  3.078225819133206E-005  3.116945133430303E-005 
 3.156151476745971E-005  3.195850975151122E-005  3.236049831773150E-005  3.276754327765188E-005 
 3.317970823287546E-005  3.359705758501505E-005  3.401965654575607E-005  3.444757114704589E-005 
 3.488086825141157E-005  3.531961556240721E-005  3.576388163519276E-005  3.621373588724602E-005 
 3.666924860920908E-005  3.713049097587150E-005  3.759753505729147E-005  3.807045383005688E-005 
 3.854932118868822E-005  3.903421195718450E-005  3.952520190071480E-005  4.002236773745673E-005 
 4.052578715058375E-005  4.103553880040345E-005  4.155170233664815E-005  4.207435841092055E-005 
 4.260358868929560E-005  4.313947586508099E-005  4.368210367173829E-005  4.423155689596622E-005 
 4.478792139094895E-005  4.535128408977076E-005  4.592173301899945E-005  4.649935731244089E-005 
 4.708424722506608E-005  4.767649414711383E-005  4.827619061837065E-005  4.888343034263022E-005 
 4.949830820233498E-005  5.012092027340144E-005  5.075136384023242E-005  5.138973741091790E-005 
 5.203614073262702E-005  5.269067480719402E-005  5.335344190689964E-005  5.402454559045163E-005 
 5.470409071916593E-005  5.539218347335139E-005  5.608893136890088E-005  5.679444327409058E-005 
 5.750882942659105E-005  5.823220145069203E-005  5.896467237474399E-005  5.970635664881910E-005 
 6.045737016259411E-005  6.121783026345850E-005  6.198785577485021E-005  6.276756701482195E-005 
 6.355708581484143E-005  6.435653553882736E-005  6.516604110242563E-005  6.598572899252748E-005 
 6.681572728703338E-005  6.765616567486558E-005  6.850717547623201E-005  6.936888966314555E-005 
 7.024144288020105E-005  7.112497146561385E-005  7.201961347252308E-005  7.292550869056245E-005 
 7.384279866770282E-005  7.477162673236935E-005  7.571213801583679E-005  7.666447947490684E-005 
 7.762879991486992E-005  7.860525001275674E-005  7.959398234088166E-005  8.059515139068248E-005 
 8.160891359686030E-005  8.263542736182224E-005  8.367485308043255E-005  8.472735316507447E-005 
 8.579309207102753E-005  8.687223632216414E-005  8.796495453696904E-005  8.907141745488643E-005 
 9.019179796299835E-005  9.132627112303854E-005  9.247501419874653E-005  9.363820668356497E-005 
 9.481603032868610E-005  9.600866917145082E-005  9.721630956410464E-005  9.843914020291606E-005 
 9.967735215766016E-005  1.009311389014741E-004  1.022006963410873E-004  1.034862228474327E-004 
 1.047879192866424E-004  1.061059890514334E-004  1.074406380928880E-004  1.087920749526342E-004 
 1.101605107954309E-004  1.115461594421628E-004  1.129492374032499E-004  1.143699639124783E-004 
 1.158085609612556E-004  1.172652533332972E-004  1.187402686397503E-004  1.202338373547574E-004 
 1.217461928514687E-004  1.232775714385077E-004  1.248282123968939E-004  1.263983580174323E-004 
 1.279882536385703E-004  1.295981476847336E-004  1.312282917051420E-004  1.328789404131152E-004 
 1.345503517258725E-004  1.362427868048317E-004  1.379565100964173E-004  1.396917893733801E-004 
 1.414488957766376E-004  1.432281038576403E-004  1.450296916212706E-004  1.468539405692819E-004 
 1.487011357442838E-004  1.505715657742805E-004  1.524655229177698E-004  1.543833031094085E-004 
 1.563252060062533E-004  1.582915350345826E-004  1.602825974373076E-004  1.622987043219798E-004 
 1.643401707094016E-004  1.664073155828494E-004  1.685004619379154E-004  1.706199368329759E-004 
 1.727660714402957E-004  1.749392010977731E-004  1.771396653613388E-004  1.793678080580106E-004 
 1.816239773396180E-004  1.839085257372019E-004  1.862218102160966E-004  1.885641922317090E-004 
 1.909360377859945E-004  1.933377174846462E-004  1.957696065950039E-004  1.982320851046881E-004 
 2.007255377809763E-004  2.032503542309222E-004  2.058069289622324E-004  2.083956614449109E-004 
 2.110169561736740E-004  2.136712227311568E-004  2.163588758519087E-004  2.190803354871979E-004 
 2.218360268706298E-004  2.246263805845888E-004  2.274518326275202E-004  2.303128244820539E-004 
 2.332098031839879E-004  2.361432213921389E-004  2.391135374590690E-004  2.421212155027076E-004 
 2.451667254788680E-004  2.482505432546797E-004  2.513731506829451E-004  2.545350356774270E-004 
 2.577366922890891E-004  2.609786207832909E-004  2.642613277179549E-004  2.675853260227192E-004 
 2.709511350790806E-004  2.743592808015528E-004  2.778102957198385E-004  2.813047190620395E-004 
 2.848430968389135E-004  2.884259819291858E-004  2.920539341659420E-004  2.957275204241000E-004 
 2.994473147089862E-004  3.032138982460266E-004  3.070278595715609E-004  3.108897946248066E-004 
 3.148003068409725E-004  3.187600072455483E-004  3.227695145497790E-004  3.268294552473373E-004 
 3.309404637122179E-004  3.351031822978572E-004  3.393182614375029E-004  3.435863597458472E-004 
 3.479081441219330E-004  3.522842898533629E-004  3.567154807218103E-004  3.612024091098634E-004 
 3.657457761092126E-004  3.703462916301938E-004  3.750046745127179E-004  3.797216526385876E-004 
 3.844979630452314E-004  3.893343520408688E-004  3.942315753211189E-004  3.991903980870836E-004 
 4.042115951649086E-004  4.092959511268526E-004  4.144442604138801E-004  4.196573274597898E-004 
 4.249359668169150E-004  4.302810032833942E-004  4.356932720320496E-004  4.411736187408857E-004 
 4.467228997252239E-004  4.523419820715094E-004  4.580317437727905E-004  4.637930738659087E-004 
 4.696268725704130E-004  4.755340514292194E-004  4.815155334510434E-004  4.875722532546203E-004 
 4.937051572147412E-004  4.999152036101283E-004  5.062033627731645E-004  5.125706172415130E-004 
 5.190179619116384E-004  5.255464041942627E-004  5.321569641717750E-004  5.388506747576206E-004 
 5.456285818576976E-004  5.524917445337798E-004  5.594412351689984E-004  5.664781396354043E-004 
 5.736035574636368E-004  5.808186020147287E-004  5.881244006540701E-004  5.955220949275618E-004 
 6.030128407399853E-004  6.105978085356134E-004  6.182781834810962E-004  6.260551656506447E-004 
 6.339299702135450E-004  6.419038276240320E-004  6.499779838135485E-004  6.581537003854265E-004 
 6.664322548120138E-004  6.748149406342824E-004  6.833030676639468E-004  6.918979621881244E-004 
 7.006009671765716E-004  7.094134424915238E-004  7.183367651001778E-004  7.273723292898466E-004 
 7.365215468858171E-004  7.457858474719535E-004  7.551666786140706E-004  7.646655060861192E-004 
 7.742838140992183E-004  7.840231055335626E-004  7.938849021732544E-004  8.038707449440820E-004 
 8.139821941542946E-004  8.242208297384038E-004  8.345882515040496E-004  8.450860793819762E-004 
 8.557159536791473E-004  8.664795353350480E-004  8.773785061812114E-004  8.884145692040057E-004 
 8.995894488107321E-004  9.109048910990639E-004  9.223626641298800E-004  9.339645582035283E-004 
 9.457123861395612E-004  9.576079835599956E-004  9.696532091761297E-004  9.818499450789720E-004 
 9.942000970333226E-004  1.006705594775550E-003  1.019368392315120E-003  1.032190468239910E-003 
 1.045173826025370E-003  1.058320494347570E-003  1.071632527400181E-003  1.085112005215452E-003 
 1.098761033989215E-003  1.112581746409986E-003  1.126576301992198E-003  1.140746887413634E-003 
 1.155095716857096E-003  1.169625032356377E-003  1.184337104146585E-003  1.199234231018868E-003 
 1.214318740679608E-003  1.229592990114131E-003  1.245059365954986E-003  1.260720284854864E-003 
 1.276578193864204E-003  1.292635570813556E-003  1.308894924700735E-003  1.325358796082866E-003 
 1.342029757473348E-003  1.358910413743814E-003  1.376003402531155E-003  1.393311394649641E-003 
 1.410837094508256E-003  1.428583240533258E-003  1.446552605596066E-003  1.464747997446535E-003 
 1.483172259151658E-003  1.501828269539811E-003  1.520718943650572E-003  1.539847233190204E-003 
 1.559216126992868E-003  1.578828651487623E-003  1.598687871171326E-003  1.618796889087455E-003 
 1.639158847310970E-003  1.659776927439273E-003  1.680654351089331E-003  1.701794380401065E-003 
 1.723200318547064E-003  1.744875510248713E-003  1.766823342298816E-003  1.789047244090784E-003 
 1.811550688154486E-003  1.834337190698840E-003  1.857410312161228E-003  1.880773657763822E-003 
 1.904430878076906E-003  1.928385669589285E-003  1.952641775285868E-003  1.977202985232518E-003 
 2.002073137168263E-003  2.027256117104941E-003  2.052755859934400E-003  2.078576350043338E-003 
 2.104721621935866E-003  2.131195760863912E-003  2.158002903465544E-003  2.185147238411335E-003 
 2.212633007058843E-003  2.240464504115339E-003  2.268646078308865E-003  2.297182133067724E-003 
 2.326077127208528E-003  2.355335575632899E-003  2.384962050032928E-003  2.414961179605519E-003 
 2.445337651775701E-003  2.476096212929051E-003  2.507241669153328E-003  2.538778886989430E-003 
 2.570712794191813E-003  2.603048380498444E-003  2.635790698410471E-003  2.668944863981683E-003 
 2.702516057617902E-003  2.736509524886433E-003  2.770930577335702E-003  2.805784593325181E-003 
 2.841077018865781E-003  2.876813368470794E-003  2.912999226017552E-003  2.949640245619919E-003 
 2.986742152511755E-003  3.024310743941495E-003  3.062351890077983E-003  3.100871534927697E-003 
 3.139875697263518E-003  3.179370471565164E-003  3.219362028971470E-003  3.259856618244647E-003 
 3.300860566746651E-003  3.342380281427865E-003  3.384422249828178E-003  3.426993041090687E-003 
 3.470099306988138E-003  3.513747782962275E-003  3.557945289176278E-003  3.602698731580411E-003 
 3.648015102991101E-003  3.693901484183578E-003  3.740365044998255E-003  3.787413045461049E-003 
 3.835052836917748E-003  3.883291863182691E-003  3.932137661701875E-003  3.981597864730693E-003 
 4.031680200526502E-003  4.082392494556160E-003  4.133742670718785E-003  4.185738752583874E-003 
 4.238388864645003E-003  4.291701233589305E-003  4.345684189582890E-003  4.400346167572460E-003 
 4.455695708603287E-003  4.511741461153763E-003  4.568492182486757E-003  4.625956740017935E-003 
 4.684144112701323E-003  4.743063392432284E-003  4.802723785468148E-003  4.863134613866712E-003 
 4.924305316942816E-003  4.986245452743270E-003  5.048964699540311E-003  5.112472857343849E-003 
 5.176779849432759E-003  5.241895723905382E-003  5.307830655249586E-003  5.374594945932536E-003 
 5.442199028010484E-003  5.510653464758802E-003  5.579968952322500E-003  5.650156321387535E-003 
 5.721226538873117E-003  5.793190709645320E-003  5.866060078252249E-003  5.939846030680995E-003 
 6.014560096136747E-003  6.090213948844237E-003  6.166819409871865E-003  6.244388448978783E-003 
 6.322933186485162E-003  6.402465895166035E-003  6.482999002168945E-003  6.564545090955704E-003 
 6.647116903268601E-003  6.730727341121298E-003  6.815389468814816E-003  6.901116514978854E-003 
 6.987921874638783E-003  7.075819111308668E-003  7.164821959110559E-003  7.254944324920506E-003 
 7.346200290541519E-003  7.438604114903885E-003  7.532170236293169E-003  7.626913274606192E-003 
 7.722848033635449E-003  7.819989503382217E-003  7.918352862398774E-003  8.017953480160102E-003 
 8.118806919465357E-003  8.220928938869622E-003  8.324335495146194E-003  8.429042745779866E-003 
 8.535067051491596E-003  8.642424978794850E-003  8.751133302584190E-003  8.861209008756378E-003 
 8.972669296864447E-003  9.085531582805196E-003  9.199813501540416E-003  9.315532909852417E-003 
 9.432707889134183E-003  9.551356748214609E-003  9.671498026219340E-003  9.793150495467482E-003 
 9.916333164404862E-003  1.004106528057412E-002  1.016736633362216E-002  1.029525605834550E-002 
 1.042475443777383E-002  1.055588170629238E-002  1.068865835280365E-002  1.082310512392878E-002 
 1.095924302724931E-002  1.109709333458960E-002  1.123667758534064E-002  1.137801758982558E-002 
 1.152113543270768E-002  1.166605347644108E-002  1.181279436476494E-002  1.196138102624162E-002 
 1.211183667783926E-002  1.226418482855953E-002  1.241844928311096E-002  1.257465414562840E-002 
 1.273282382343942E-002  1.289298303087799E-002  1.305515679314610E-002  1.321937045022408E-002 
 1.338564966082992E-002  1.355402040642858E-002  1.372450899529161E-002  1.389714206660788E-002 
 1.407194659464602E-002  1.424894989296917E-002  1.442817961870282E-002  1.460966377685624E-002 
 1.479343072469838E-002  1.497950917618873E-002  1.516792820646391E-002  1.535871725638074E-002 
 1.555190613711643E-002  1.574752503482664E-002  1.594560451536213E-002  1.614617552904474E-002 
 1.634926941550341E-002  1.655491790857109E-002  1.676315314124322E-002  1.697400765069859E-002 
 1.718751438338326E-002  1.740370670015861E-002  1.762261838151397E-002  1.784428363284492E-002 
 1.806873708979800E-002  1.829601382368249E-002  1.852614934695046E-002  1.875917961874564E-002 
 1.899514105052207E-002  1.923407051173358E-002  1.947600533559457E-002  1.972098332491349E-002 
 1.996904275799957E-002  2.022022239464391E-002  2.047456148217579E-002  2.073209976159509E-002 
 2.099287747378191E-002  2.125693536578436E-002  2.152431469718526E-002  2.179505724654917E-002 
 2.206920531795024E-002  2.234680174758239E-002  2.262788991045252E-002  2.291251372715795E-002 
 2.320071767074913E-002  2.349254677367859E-002  2.378804663483739E-002  2.408726342668005E-002 
 2.439024390243903E-002  2.469703540343011E-002  2.500768586644949E-002  2.532224383126404E-002 
 2.564075844819573E-002  2.596327948580145E-002  2.628985733864956E-002  2.662054303519395E-002 
 2.695538824574752E-002  2.729444529055564E-002  2.763776714797138E-002  2.798540746273347E-002 
 2.833742055434838E-002  2.869386142557783E-002  2.905478577103315E-002  2.942024998587758E-002 
 2.979031117463829E-002  3.016502716012891E-002  3.054445649248451E-002  3.092865845831025E-002 
 3.131769308994491E-002  3.171162117484125E-002  3.211050426506395E-002  3.251440468690740E-002 
 3.292338555063425E-002  3.333751076033650E-002  3.375684502392077E-002  3.418145386321887E-002 
 3.461140362422580E-002  3.504676148746647E-002  3.548759547849271E-002  3.593397447851258E-002 
 3.638596823515294E-002  3.684364737335789E-002  3.730708340642390E-002  3.777634874717398E-002 
 3.825151671927242E-002  3.873266156868156E-002  3.921985847526302E-002  3.971318356452466E-002 
 4.021271391951532E-002  4.071852759286934E-002  4.123070361900224E-002  4.174932202646013E-002 
 4.227446385042430E-002  4.280621114537313E-002  4.334464699790339E-002  4.388985553971242E-002 
 4.444192196074415E-002  4.500093252250002E-002  4.556697457151762E-002  4.614013655301878E-002 
 4.672050802472918E-002  4.730817967087207E-002  4.790324331633777E-002  4.850579194103151E-002 
 4.911591969440188E-002  4.973372191015160E-002  5.035929512113384E-002  5.099273707443554E-002 
 5.163414674665060E-002  5.228362435934535E-002  5.294127139471812E-002  5.360719061145617E-002 
 5.428148606079193E-002  5.496426310276118E-002  5.565562842266595E-002  5.635569004774402E-002 
 5.706455736404858E-002  5.778234113354004E-002  5.850915351139264E-002  5.924510806351924E-002 
 5.999031978431587E-002  6.074490511463006E-002  6.150898195995487E-002  6.228266970885187E-002 
 6.306608925160602E-002  6.385936299911468E-002  6.466261490201483E-002  6.547597047005055E-002 
 6.629955679168403E-002  6.713350255395384E-002  6.797793806258175E-002  6.883299526233413E-002 
 6.969880775763819E-002  7.057551083345759E-002  7.146324147643182E-002  7.236213839627972E-002 
 7.327234204747396E-002  7.419399465118696E-002  7.512724021751295E-002  7.607222456797062E-002 
 7.702909535828704E-002  7.799800210147011E-002  7.897909619116983E-002  7.997253092533350E-002 
 8.097846153015979E-002  8.199704518435197E-002  8.302844104367849E-002  8.407281026584090E-002 
 8.513031603565467E-002  8.620112359054813E-002  8.728540024638001E-002  8.838331542358392E-002 
 8.949504067364017E-002  9.062074970588058E-002  9.176061841463207E-002  9.291482490669908E-002 
 9.408354952919447E-002  9.526697489771840E-002  9.646528592489213E-002  9.767866984925193E-002 
 9.890731626450430E-002  1.001514171491515E-001  1.014111668964881E-001  1.026867623449746E-001 
 1.039784028089957E-001  1.052862901100011E-001  1.066106286080429E-001  1.079516252337058E-001 
 1.093094895204406E-001  1.106844336373051E-001  1.120766724221144E-001  1.134864234150114E-001 
 1.149139068924572E-001  1.163593459016488E-001  1.178229662953728E-001  1.193049967672928E-001 
 1.208056688876857E-001  1.223252171396235E-001  1.238638789556117E-001  1.254218947546900E-001 
 1.269995079799963E-001  1.285969651368071E-001  1.302145158310532E-001  1.318524128083211E-001 
 1.335109119933465E-001  1.351902725300006E-001  1.368907568217843E-001  1.386126305728280E-001 
 1.403561628294081E-001  1.421216260219873E-001  1.439092960077809E-001  1.457194521138615E-001 
 1.475523771808037E-001  1.494083576068777E-001  1.512876833928017E-001  1.531906481870528E-001 
 1.551175493317519E-001  1.570686879091235E-001  1.590443687885393E-001  1.610449006741569E-001 
 1.630705961531530E-001  1.651217717445676E-001  1.671987479487606E-001  1.693018492974887E-001 
 1.714314044046171E-001  1.735877460174634E-001  1.757712110687918E-001  1.779821407294594E-001 
 1.802208804617232E-001  1.824877800732216E-001  1.847831937716305E-001  1.871074802200104E-001 
 1.894610025928482E-001  1.918441286328022E-001  1.942572307081654E-001  1.967006858710457E-001 
 1.991748759162840E-001  2.016801874411091E-001  2.042170119055430E-001  2.067857456935703E-001 
 2.093867901750706E-001  2.120205517685366E-001  2.146874420045759E-001  2.173878775902131E-001 
 2.201222804740032E-001  2.228910779119592E-001  2.256947025343144E-001  2.285335924131204E-001 
 2.314081911306958E-001  2.343189478489393E-001  2.372663173795095E-001  2.402507602548922E-001 
 2.432727428003592E-001  2.463327372068306E-001  2.494312216046588E-001  2.525686801383340E-001 
 2.557456030421358E-001  2.589624867167319E-001  2.622198338067404E-001  2.655181532792719E-001 
 2.688579605034538E-001  2.722397773309601E-001  2.756641321775510E-001  2.791315601056371E-001 
 2.826426029078878E-001  2.861978091918833E-001  2.897977344658389E-001  2.934429412254034E-001 
 2.971339990415481E-001  3.008714846495675E-001  3.046559820391905E-001  3.084880825458347E-001 
 3.123683849430010E-001  3.162974955358325E-001  3.202760282558544E-001  3.243046047568973E-001 
 3.283838545122368E-001  3.325144149129455E-001  3.366969313674901E-001  3.409320574025768E-001 
 3.452204547652636E-001  3.495627935263646E-001  3.539597521851445E-001  3.584120177753400E-001 
 3.629202859725085E-001  3.674852612027266E-001  3.721076567526629E-001  3.767881948810251E-001 
 3.815276069314188E-001  3.863266334466203E-001  3.911860242842848E-001  3.961065387341185E-001 
 4.010889456365137E-001  4.061340235026865E-001  4.112425606363183E-001  4.164153552567283E-001 
 4.216532156236016E-001  4.269569601632754E-001  4.323274175966254E-001  4.377654270685526E-001 
 4.432718382790992E-001  4.488475116162213E-001  4.544933182902199E-001  4.602101404698752E-001 
 4.659988714202846E-001  4.718604156424346E-001  4.777956890145371E-001  4.838056189351301E-001 
 4.898911444679919E-001  4.960532164888690E-001  5.022927978340497E-001  5.086108634508155E-001 
 5.150084005497714E-001  5.214864087591059E-001  5.280459002807824E-001  5.346879000486945E-001 
 5.414134458888211E-001  5.482235886813811E-001  5.551193925250422E-001  5.621019349031854E-001 
 5.691723068522615E-001  5.763316131322743E-001  5.835809723993939E-001  5.909215173807556E-001 
 5.983543950514482E-001  6.058807668137280E-001  6.135018086784975E-001  6.212187114490511E-001 
 6.290326809071478E-001  6.369449380014145E-001  6.449567190381171E-001  6.530692758743453E-001 
 6.612838761136075E-001  6.696018033039048E-001  6.780243571382851E-001  6.865528536579184E-001 
 6.951886254577394E-001  7.039330218946593E-001  7.127874092984132E-001  7.217531711850483E-001 
 7.308317084730982E-001  7.400244397024868E-001  7.493328012561692E-001  7.587582475845771E-001 
 7.683022514328772E-001  7.779663040710854E-001  7.877519155270908E-001  7.976606148225895E-001 
 8.076939502120076E-001  8.178534894244138E-001  8.281408199084769E-001  8.385575490805177E-001 
 8.491053045756597E-001  8.597857345021596E-001  8.706005076989246E-001  8.815513139962667E-001 
 8.926398644799521E-001  9.038678917585511E-001  9.152371502341707E-001  9.267494163765806E-001 
 9.384064890007838E-001  9.502101895480981E-001  9.621623623707453E-001  9.742648750200471E-001 
 9.865196185382301E-001  9.989285077538976E-001  1.011493481581239E+000  1.024216503322976E+000 
 1.037099560977141E+000  1.050144667547706E+000  1.063353861359110E+000  1.076729206374763E+000 
 1.090272792519533E+000  1.103986736006311E+000  1.117873179666671E+000  1.131934293285682E+000 
 1.146172273940960E+000  1.160589346345944E+000  1.175187763197532E+000  1.189969805528060E+000 
 1.204937783061712E+000  1.220094034575435E+000  1.235440928264358E+000  1.250980862111846E+000 
 1.266716264264183E+000  1.282649593409962E+000  1.298783339164285E+000  1.315120022457746E+000 
 1.331662195930347E+000  1.348412444330353E+000  1.365373384918150E+000  1.382547667875216E+000 
 1.399937976718201E+000  1.417547028718244E+000  1.435377575325548E+000  1.453432402599292E+000 
 1.471714331642977E+000  1.490226219045204E+000  1.508970957326046E+000  1.527951475388998E+000 
 1.547170738978618E+000  1.566631751143950E+000  1.586337552707732E+000  1.606291222741554E+000 
 1.626495879046956E+000  1.646954678642589E+000  1.667670818257518E+000  1.688647534830699E+000 
 1.709888106016777E+000  1.731395850698218E+000  1.753174129503880E+000  1.775226345334140E+000 
 1.797555943892582E+000  1.820166414224412E+000  1.843061289261626E+000  1.866244146375022E+000 
 1.889718607933194E+000  1.913488341868516E+000  1.937557062250276E+000  1.961928529865008E+000 
 1.986606552804101E+000  2.011594987058857E+000  2.036897737122958E+000  2.062518756602585E+000 
 2.088462048834162E+000  2.114731667509876E+000  2.141331717311096E+000  2.168266354549715E+000 
 2.195539787817605E+000  2.223156278644206E+000  2.251120142162387E+000  2.279435747782725E+000 
 2.308107519876199E+000  2.337139938465533E+000  2.366537539925206E+000  2.396304917690245E+000 
 2.426446722973999E+000  2.456967665494857E+000  2.487872514212187E+000  2.519166098071484E+000 
 2.550853306758884E+000  2.582939091465220E+000  2.615428465659623E+000  2.648326505872917E+000 
 2.681638352490820E+000  2.715369210557130E+000  2.749524350587057E+000  2.784109109390708E+000 
 2.819128890907016E+000  2.854589167048095E+000  2.890495478554228E+000  2.926853435859648E+000 
 2.963668719969145E+000  3.000947083345769E+000  3.038694350809645E+000  3.076916420448102E+000 
 3.115619264537294E+000  3.154808930475341E+000  3.194491541727283E+000  3.234673298781870E+000 
 3.275360480120379E+000  3.316559443197686E+000  3.358276625435578E+000  3.400518545228663E+000 
 3.443291802962854E+000  3.486603082046683E+000  3.530459149955638E+000  3.574866859289541E+000 
 3.619833148843332E+000  3.665365044691244E+000  3.711469661284625E+000  3.758154202563632E+000 
 3.805425963082807E+000  3.853292329150914E+000  3.901760779985041E+000  3.950838888879228E+000 
 4.000534324387854E+000  4.050854851523807E+000  4.101808332971840E+000  4.153402730317101E+000 
 4.205646105289130E+000  4.258546621021572E+000  4.312112543327621E+000  4.366352241991626E+000 
 4.421274192076862E+000  4.476886975249756E+000  4.533199281120837E+000  4.590219908602451E+000 
 4.647957767283659E+000  4.706421878822356E+000  4.765621378354902E+000  4.825565515923555E+000 
 4.886263657921752E+000  4.947725288557680E+000  5.009960011336180E+000  5.072977550559283E+000 
 5.136787752845725E+000  5.201400588669416E+000  5.266826153917417E+000  5.333074671467419E+000 
 5.400156492785053E+000  5.468082099541397E+000  5.536862105250686E+000  5.606507256928753E+000 
 5.677028436772251E+000  5.748436663858991E+000  5.820743095869752E+000  5.893959030831629E+000 
 5.968095908883424E+000  6.043165314063178E+000  6.119178976118160E+000  6.196148772337739E+000 
 6.274086729409145E+000  6.353005025296751E+000  6.432915991144860E+000  6.513832113204442E+000 
 6.595766034784219E+000  6.678730558226111E+000  6.762738646905706E+000  6.847803427257793E+000 
 6.933938190827340E+000  7.021156396346424E+000  7.109471671837078E+000  7.198897816740788E+000 
 7.289448804074648E+000  7.381138782614631E+000  7.473982079106453E+000  7.567993200504059E+000 
 7.663186836236444E+000  7.759577860502880E+000  7.857181334596989E+000  7.956012509260203E+000 
 8.056086827064608E+000  8.157419924825977E+000  8.260027636047013E+000  8.363925993391327E+000 
 8.469131231188660E+000  8.575659787971434E+000  8.683528309043393E+000  8.792753649080431E+000 
 8.903352874764119E+000  9.015343267448518E+000  9.128742325860296E+000  9.243567768833062E+000 
 9.359837538075908E+000  9.477569800976800E+000  9.596782953441377E+000  9.717495622767219E+000 
 9.839726670554516E+000  9.963495195653184E+000  1.008882053714704E+001  1.021572227737571E+001 
 1.034422024499426E+001  1.047433451807156E+001  1.060608542722753E+001  1.073949355880973E+001 
 1.087457975811019E+001  1.101136513262233E+001  1.114987105533924E+001  1.129011916809316E+001 
 1.143213138493700E+001  1.157592989556861E+001  1.172153716879779E+001  1.186897595605725E+001 
 1.201826929495748E+001  1.216944051288639E+001  1.232251323065438E+001  1.247751136618498E+001 
 1.263445913825224E+001  1.279338107026489E+001  1.295430199409808E+001  1.311724705397359E+001 
 1.328224171038852E+001  1.344931174409363E+001  1.361848326012161E+001  1.378978269186598E+001 
 1.396323680521151E+001  1.413887270271625E+001  1.431671782784656E+001  1.449679996926508E+001 
 1.467914726517274E+001  1.486378820770556E+001  1.505075164738643E+001  1.524006679763319E+001 
 1.543176323932327E+001  1.562587092541563E+001  1.582242018563120E+001  1.602144173119170E+001 
 1.622296665961858E+001  1.642702645959194E+001  1.663365301587062E+001  1.684287861427450E+001 
 1.705473594672892E+001  1.726925811637316E+001  1.748647864273268E+001  1.770643146695662E+001 
 1.792915095712132E+001  1.815467191360017E+001  1.838302957450150E+001  1.861425962117443E+001 
 1.884839818378414E+001  1.908548184695748E+001  1.932554765549908E+001  1.956863312017997E+001 
 1.981477622359863E+001  2.006401542611567E+001  2.031638967186363E+001  2.057193839483179E+001 
 2.083070152502809E+001  2.109271949471809E+001  2.135803324474258E+001  2.162668423091486E+001 
 2.189871443049801E+001  2.217416634876420E+001  2.245308302563612E+001  2.273550804241191E+001 