<UPF version="2.0.1">
  <PP_INFO>
    Generated using "atomic" code by A. Dal Corso  v.5.1.2
    Author: ADC
    Generation date: 30Jul2016
    Pseudopotential type: PAW
    Element: Nd
    Functional:  SLA  PW   PBX  PBC

    Suggested minimum cutoff for wavefunctions: 110. Ry
    Suggested minimum cutoff for charge density: 563. Ry
    The Pseudo was generated with a Scalar-Relativistic Calculation
    Local Potential by smoothing AE potential with Bessel fncs, cutoff radius:   1.7000
    Pseudopotential contains additional information for GIPAW reconstruction.

    Valence configuration: 
    nl pn  l   occ       Rcut    Rcut US       E pseu
    5S  1  0  2.00      1.300      1.700    -3.090209
    6S  2  0  2.00      1.300      1.700    -0.271998
    5P  2  1  6.00      1.400      1.900    -1.717003
    4D  3  2 10.00      1.050      1.300    -8.798545
    5D  4  2  0.50      1.050      1.300    -0.177353
    4F  4  3  3.50      1.000      1.300    -0.305666
    Generation configuration:
    5S  1  0  2.00      1.300      1.700    -3.090229
    6S  2  0  2.00      1.300      1.700    -0.272003
    5P  2  1  6.00      1.400      1.900    -1.717017
    6P  3  1  0.00      1.400      1.900     0.300000
    4D  3  2 10.00      1.050      1.300    -8.798623
    5D  4  2  0.50      1.050      1.300    -0.177370
    4F  4  3  3.50      1.000      1.300    -0.305718
    4F  4  3  0.00      1.000      1.300     1.000000

    Pseudization used: troullier-martins
<PP_INPUTFILE>
 &input
   title='Nd',
   zed=60.0,
   rel=1,
   config='[Xe] 4f3.5 5d0.5 6s2. 6p0.',
   iswitch=3,
   dft='PBE'
 /
 &inputp
   lpaw=.true.,
   pseudotype=3,
   file_pseudopw='Nd.pbe-spdfn-kjpaw_psl.1.0.0.UPF',
   author='ADC',
   lloc=-1,
   rcloc=1.7,
   which_augfun='PSQ',
   rmatch_augfun_nc=.true.,
   nlcc=.true.,
   new_core_ps=.true.,
   rcore=1.1,
   tm=.true.
 /
8
5S  1  0  2.00  0.00  1.30  1.70  0.0
6S  2  0  2.00  0.00  1.30  1.70  0.0
5P  2  1  6.00  0.00  1.40  1.90  0.0
6P  3  1  0.00  0.30  1.40  1.90  0.0
4D  3  2 10.00  0.00  1.05  1.30  0.0
5D  4  2  0.50  0.00  1.05  1.30  0.0
4F  4  3  3.50  0.00  1.00  1.30  0.0
4F  4  3  0.00  1.00  1.00  1.30  0.0
</PP_INPUTFILE>
  </PP_INFO>
  <!--                               -->
  <!-- END OF HUMAN READABLE SECTION -->
  <!--                               -->
  <PP_HEADER generated='Generated using "atomic" code by A. Dal Corso  v.5.1.2'
             author="ADC"
             date="30Jul2016"
             comment=""
             element="Nd"
             pseudo_type="PAW"
             relativistic="scalar"
             is_ultrasoft="T"
             is_paw="T"
             is_coulomb="F"
             has_so="F"
             has_wfc="T"
             has_gipaw="T"
             paw_as_gipaw="T"
             core_correction="T"
             functional=" SLA  PW   PBX  PBC"
             z_valence="2.400000000000000E+001"
             total_psenergy="-9.079981957350710E+002"
             wfc_cutoff="1.095201540563047E+002"
             rho_cutoff="5.625326037716641E+002"
             l_max="3"
             l_max_rho="6"
             l_local="-1"
             mesh_size="1257"
             number_of_wfc="6"
             number_of_proj="8"/>
  <PP_MESH dx="1.250000000000000E-002" mesh="1257" xmin="-7.000000000000000E+000" rmax="1.000000000000000E+002"
zmesh="6.000000000000000E+001">
    <PP_R type="real" size="1257" columns="4">
 1.519803275924194E-005  1.538920047781704E-005  1.558277279027637E-005  1.577877994268757E-005 
 1.597725256156700E-005  1.617822165866515E-005  1.638171863581231E-005  1.658777528982519E-005 
 1.679642381747517E-005  1.700769682051924E-005  1.722162731079395E-005  1.743824871537364E-005 
 1.765759488179350E-005  1.787970008333828E-005  1.810459902439763E-005  1.833232684588864E-005 
 1.856291913074672E-005  1.879641190948554E-005  1.903284166582679E-005  1.927224534240096E-005 
 1.951466034651957E-005  1.976012455602021E-005  2.000867632518501E-005  2.026035449073358E-005 
 2.051519837789135E-005  2.077324780653416E-005  2.103454309741024E-005  2.129912507844041E-005 
 2.156703509109747E-005  2.183831499686600E-005  2.211300718378319E-005  2.239115457306211E-005 
 2.267280062579823E-005  2.295798934976029E-005  2.324676530626665E-005  2.353917361714803E-005 
 2.383525997179791E-005  2.413507063431159E-005  2.443865245071505E-005  2.474605285628478E-005 
 2.505731988295954E-005  2.537250216684552E-005  2.569164895581584E-005  2.601481011720554E-005 
 2.634203614560362E-005  2.667337817074274E-005  2.700888796548844E-005  2.734861795392877E-005 
 2.769262121956556E-005  2.804095151360902E-005  2.839366326337623E-005  2.875081158079571E-005 
 2.911245227101866E-005  2.947864184113868E-005  2.984943750902116E-005  3.022489721224359E-005 
 3.060507961714845E-005  3.099004412801002E-005  3.137985089631629E-005  3.177456083016794E-005 
 3.217423560379515E-005  3.257893766719445E-005  3.298873025588661E-005  3.340367740079732E-005 
 3.382384393826224E-005  3.424929552015765E-005  3.468009862415882E-005  3.511632056412723E-005 
 3.555802950062847E-005  3.600529445158257E-005  3.645818530304808E-005  3.691677282014195E-005 
 3.738112865809672E-005  3.785132537345678E-005  3.832743643541560E-005  3.880953623729523E-005 
 3.929770010817055E-005  3.979200432463956E-005  4.029252612274173E-005  4.079934371002638E-005 
 4.131253627777264E-005  4.183218401336331E-005  4.235836811281430E-005  4.289117079346167E-005 
 4.343067530680831E-005  4.397696595153203E-005  4.453012808665751E-005  4.509024814489378E-005 
 4.565741364613947E-005  4.623171321115815E-005  4.681323657542521E-005  4.740207460314946E-005 
 4.799831930147072E-005  4.860206383483613E-005  4.921340253955744E-005  4.983243093855100E-005 
 5.045924575626359E-005  5.109394493378572E-005  5.173662764415514E-005  5.238739430785300E-005 
 5.304634660849445E-005  5.371358750871710E-005  5.438922126626914E-005  5.507335345029970E-005 
 5.576609095785453E-005  5.646754203057853E-005  5.717781627162891E-005  5.789702466280089E-005 
 5.862527958186881E-005  5.936269482014550E-005  6.010938560026217E-005  6.086546859417239E-005 
 6.163106194138221E-005  6.240628526740967E-005  6.319125970247679E-005  6.398610790043606E-005 
 6.479095405793550E-005  6.560592393382472E-005  6.643114486880485E-005  6.726674580532597E-005 
 6.811285730773445E-005  6.896961158267395E-005  6.983714249974299E-005  7.071558561241234E-005 
 7.160507817920567E-005  7.250575918514616E-005  7.341776936347343E-005  7.434125121763336E-005 
 7.527634904354444E-005  7.622320895214455E-005  7.718197889222076E-005  7.815280867352684E-005 
 7.913584999019129E-005  8.013125644441976E-005  8.113918357049605E-005  8.215978885908420E-005 
 8.319323178183694E-005  8.423967381631357E-005  8.529927847121085E-005  8.637221131191208E-005 
 8.745863998635641E-005  8.855873425123459E-005  8.967266599851368E-005  9.080060928229542E-005 
 9.194274034601286E-005  9.309923764996833E-005  9.427028189921846E-005  9.545605607180975E-005 
 9.665674544736903E-005  9.787253763605419E-005  9.910362260786823E-005  1.003501927223426E-004 
 1.016124427585940E-004  1.028905699457584E-004  1.041847739938094E-004  1.054952571247624E-004 
 1.068222241042730E-004  1.081658822736315E-004  1.095264415821602E-004  1.109041146200196E-004 
 1.122991166514244E-004  1.137116656482805E-004  1.151419823242422E-004  1.165902901692002E-004 
 1.180568154842021E-004  1.195417874168116E-004  1.210454379969149E-004  1.225680021729739E-004 
 1.241097178487390E-004  1.256708259204213E-004  1.272515703143327E-004  1.288521980250012E-004 
 1.304729591537629E-004  1.321141069478416E-004  1.337758978399193E-004  1.354585914882035E-004 
 1.371624508170005E-004  1.388877420577968E-004  1.406347347908589E-004  1.424037019873558E-004 
 1.441949200520106E-004  1.460086688662905E-004  1.478452318321376E-004  1.497048959162519E-004 
 1.515879516949304E-004  1.534946933994690E-004  1.554254189621388E-004  1.573804300627368E-004 
 1.593600321757251E-004  1.613645346179615E-004  1.633942505970305E-004  1.654494972601835E-004 
 1.675305957438931E-004  1.696378712240311E-004  1.717716529666792E-004  1.739322743795751E-004 
 1.761200730642109E-004  1.783353908685821E-004  1.805785739406025E-004  1.828499727821915E-004 
 1.851499423040384E-004  1.874788418810611E-004  1.898370354085563E-004  1.922248913590604E-004 
 1.946427828399242E-004  1.970910876516103E-004  1.995701883467270E-004  2.020804722898017E-004 
 2.046223317178073E-004  2.071961638014515E-004  2.098023707072333E-004  2.124413596602845E-004 
 2.151135430079979E-004  2.178193382844580E-004  2.205591682756823E-004  2.233334610856805E-004 
 2.261426502033489E-004  2.289871745702024E-004  2.318674786489603E-004  2.347840124929956E-004 
 2.377372318166543E-004  2.407275980664646E-004  2.437555784932370E-004  2.468216462250733E-004 
 2.499262803412953E-004  2.530699659472991E-004  2.562531942503572E-004  2.594764626363681E-004 
 2.627402747475748E-004  2.660451405612603E-004  2.693915764694312E-004  2.727801053595071E-004 
 2.762112566960209E-004  2.796855666033493E-004  2.832035779494847E-004  2.867658404308564E-004 
 2.903729106582253E-004  2.940253522436527E-004  2.977237358885672E-004  3.014686394729385E-004 
 3.052606481455696E-004  3.091003544155314E-004  3.129883582447402E-004  3.169252671417043E-004 
 3.209116962564488E-004  3.249482684766333E-004  3.290356145248797E-004  3.331743730573238E-004 
 3.373651907634065E-004  3.416087224669210E-004  3.459056312283290E-004  3.502565884483672E-004 
 3.546622739729529E-004  3.591233761994129E-004  3.636405921840462E-004  3.682146277510407E-004 
 3.728461976027600E-004  3.775360254314162E-004  3.822848440321488E-004  3.870933954175263E-004 
 3.919624309334851E-004  3.968927113767313E-004  4.018850071136146E-004  4.069400982005006E-004 
 4.120587745056566E-004  4.172418358326691E-004  4.224900920454158E-004  4.278043631946073E-004 
 4.331854796459225E-004  4.386342822097552E-004  4.441516222725914E-004  4.497383619300414E-004 
 4.553953741215428E-004  4.611235427667596E-004  4.669237629036970E-004  4.727969408285517E-004 
 4.787439942373239E-004  4.847658523692079E-004  4.908634561517881E-004  4.970377583480618E-004 
 5.032897237053083E-004  5.096203291058349E-004  5.160305637196148E-004  5.225214291588482E-004 
 5.290939396344658E-004  5.357491221146012E-004  5.424880164850572E-004  5.493116757117894E-004 
 5.562211660054346E-004  5.632175669879093E-004  5.703019718611005E-004  5.774754875776838E-004 
 5.847392350140840E-004  5.920943491456161E-004  5.995419792238278E-004  6.070832889560706E-004 
 6.147194566873336E-004  6.224516755843604E-004  6.302811538220847E-004  6.382091147724110E-004 
 6.462367971953668E-004  6.543654554326637E-004  6.625963596036886E-004  6.709307958039642E-004 
 6.793700663061037E-004  6.879154897632925E-004  6.965684014153319E-004  7.053301532972719E-004 
 7.142021144506698E-004  7.231856711375062E-004  7.322822270567904E-004  7.414932035638921E-004 
 7.508200398926303E-004  7.602641933801568E-004  7.698271396946686E-004  7.795103730659830E-004 
 7.893154065190155E-004  7.992437721101913E-004  8.092970211668329E-004  8.194767245295597E-004 
 8.297844727977324E-004  8.402218765779896E-004  8.507905667359069E-004  8.614921946508235E-004 
 8.723284324738730E-004  8.833009733892633E-004  8.944115318788356E-004  9.056618439899582E-004 
 9.170536676067876E-004  9.285887827249399E-004  9.402689917296225E-004  9.520961196772549E-004 
 9.640720145806414E-004  9.761985476977260E-004  9.884776138239786E-004  1.000911131588466E-003 
 1.013501043753633E-003  1.026249317518871E-003  1.039157944827891E-003  1.052228942679973E-003 
 1.065464353445126E-003  1.078866245183209E-003  1.092436711967073E-003  1.106177874209761E-003 
 1.120091878995829E-003  1.134180900416837E-003  1.148447139911043E-003  1.162892826607395E-003 
 1.177520217673827E-003  1.192331598669954E-003  1.207329283904191E-003  1.222515616795369E-003 
 1.237892970238898E-003  1.253463746977541E-003  1.269230379976839E-003  1.285195332805279E-003 
 1.301361100019219E-003  1.317730207552678E-003  1.334305213112010E-003  1.351088706575554E-003 
 1.368083310398313E-003  1.385291680021709E-003  1.402716504288507E-003  1.420360505862948E-003 
 1.438226441656175E-003  1.456317103257006E-003  1.474635317368122E-003  1.493183946247745E-003 
 1.511965888156876E-003  1.530984077812148E-003  1.550241486844392E-003  1.569741124262945E-003 
 1.589486036925828E-003  1.609479310015814E-003  1.629724067522501E-003  1.650223472730438E-003 
 1.670980728713396E-003  1.691999078834851E-003  1.713281807254774E-003  1.734832239442777E-003 
 1.756653742697739E-003  1.778749726673937E-003  1.801123643913822E-003  1.823778990387483E-003 
 1.846719306038899E-003  1.869948175339062E-003  1.893469227846063E-003  1.917286138772207E-003 
 1.941402629558284E-003  1.965822468455043E-003  1.990549471111993E-003  2.015587501173611E-003 
 2.040940470883032E-003  2.066612341693355E-003  2.092607124886622E-003  2.118928882200593E-003 
 2.145581726463404E-003  2.172569822236195E-003  2.199897386463838E-003  2.227568689133842E-003 
 2.255588053943545E-003  2.283959858975708E-003  2.312688537382588E-003  2.341778578078636E-003 
 2.371234526441895E-003  2.401060985024221E-003  2.431262614270457E-003  2.461844133246614E-003 
 2.492810320377252E-003  2.524166014192111E-003  2.555916114082141E-003  2.588065581065050E-003 
 2.620619438560461E-003  2.653582773174839E-003  2.686960735496281E-003  2.720758540899307E-003 
 2.754981470359776E-003  2.789634871280043E-003  2.824724158324503E-003  2.860254814265648E-003 
 2.896232390840752E-003  2.932662509619358E-003  2.969550862881642E-003  3.006903214507848E-003 
 3.044725400878913E-003  3.083023331788405E-003  3.121802991365951E-003  3.161070439012255E-003 
 3.200831810345904E-003  3.241093318162061E-003  3.281861253403234E-003  3.323141986142253E-003 
 3.364941966577591E-003  3.407267726041235E-003  3.450125878019213E-003  3.493523119184964E-003 
 3.537466230445718E-003  3.581962078002011E-003  3.627017614420550E-003  3.672639879720566E-003 
 3.718836002473830E-003  3.765613200918515E-003  3.812978784087042E-003  3.860940152948148E-003 
 3.909504801563297E-003  3.958680318257636E-003  4.008474386805703E-003  4.058894787632013E-003 
 4.109949399026777E-003  4.161646198376895E-003  4.213993263412441E-003  4.266998773468835E-003 
 4.320671010764860E-003  4.375018361696790E-003  4.430049318148779E-003  4.485772478819731E-003 
 4.542196550566878E-003  4.599330349766220E-003  4.657182803690124E-003  4.715762951902218E-003 
 4.775079947669835E-003  4.835143059394256E-003  4.895961672058882E-003  4.957545288695678E-003 
 5.019903531870039E-003  5.083046145184321E-003  5.146982994800332E-003  5.211724070980898E-003 
 5.277279489650889E-003  5.343659493977848E-003  5.410874455972495E-003  5.478934878109403E-003 
 5.547851394967994E-003  5.617634774894241E-003  5.688295921683232E-003  5.759845876282909E-003 
 5.832295818519257E-003  5.905657068843147E-003  5.979941090099196E-003  6.055159489316858E-003 
 6.131324019524039E-003  6.208446581583551E-003  6.286539226052617E-003  6.365614155065818E-003 
 6.445683724241692E-003  6.526760444613316E-003  6.608856984583216E-003  6.691986171902780E-003 
 6.776160995676656E-003  6.861394608392313E-003  6.947700327975139E-003  7.035091639869426E-003 
 7.123582199145447E-003  7.213185832633125E-003  7.303916541082493E-003  7.395788501351331E-003 
 7.488816068620361E-003  7.583013778636228E-003  7.678396349982768E-003  7.774978686380812E-003 
 7.872775879016912E-003  7.971803208901403E-003  8.072076149256044E-003  8.173610367931773E-003 
 8.276421729856830E-003  8.380526299515682E-003  8.485940343459154E-003  8.592680332846072E-003 
 8.700762946016939E-003  8.810205071099962E-003  8.921023808649838E-003  9.033236474319787E-003 
 9.146860601567110E-003  9.261913944392861E-003  9.378414480115936E-003  9.496380412182049E-003 
 9.615830173008112E-003  9.736782426862267E-003  9.859256072780258E-003  9.983270247518430E-003 
 1.010884432854389E-002  1.023599793706230E-002  1.036475094108367E-002  1.049512345852684E-002 
 1.062713586036290E-002  1.076080877379820E-002  1.089616308549746E-002  1.103321994484724E-002 
 1.117200076726066E-002  1.131252723752358E-002  1.145482131318287E-002  1.159890522797737E-002 
 1.174480149531189E-002  1.189253291177505E-002  1.204212256070121E-002  1.219359381577736E-002 
 1.234697034469530E-002  1.250227611284970E-002  1.265953538708281E-002  1.281877273947618E-002 
 1.298001305119008E-002  1.314328151635128E-002  1.330860364598962E-002  1.347600527202421E-002 
 1.364551255129971E-002  1.381715196967334E-002  1.399095034615346E-002  1.416693483708997E-002 
 1.434513294041764E-002  1.452557249995264E-002  1.470828170974326E-002  1.489328911847526E-002 
 1.508062363393266E-002  1.527031452751463E-002  1.546239143880923E-002  1.565688438022460E-002 
 1.585382374167857E-002  1.605324029534703E-002  1.625516520047222E-002  1.645963000823137E-002 
 1.666666666666667E-002  1.687630752567724E-002  1.708858534207382E-002  1.730353328469709E-002 
 1.752118493960041E-002  1.774157431529766E-002  1.796473584807719E-002  1.819070440738253E-002 
 1.841951530126080E-002  1.865120428187969E-002  1.888580755111377E-002  1.912336176620121E-002 
 1.936390404547139E-002  1.960747197414485E-002  1.985410361020598E-002  2.010383749034968E-002 
 2.035671263600284E-002  2.061276855942142E-002  2.087204526986442E-002  2.113458327984534E-002 
 2.140042361146236E-002  2.166960780280819E-002  2.194217791446037E-002  2.221817653605339E-002 
 2.249764679293340E-002  2.278063235289661E-002  2.306717743301253E-002  2.335732680653290E-002 
 2.365112580988763E-002  2.394862034976876E-002  2.424985691030335E-002  2.455488256031693E-002 
 2.486374496068785E-002  2.517649237179456E-002  2.549317366105633E-002  2.581383831056889E-002 
 2.613853642483615E-002  2.646731873859907E-002  2.680023662476306E-002  2.713734210242518E-002 
 2.747868784500214E-002  2.782432718846072E-002  2.817431413965153E-002  2.852870338474776E-002 
 2.888755029778994E-002  2.925091094933831E-002  2.961884211523398E-002  2.999140128547016E-002 
 3.036864667317517E-002  3.075063722370835E-002  3.113743262387037E-002  3.152909331122950E-002 
 3.192568048356494E-002  3.232725610842925E-002  3.273388293283081E-002  3.314562449303820E-002 
 3.356254512450795E-002  3.398470997193693E-002  3.441218499944146E-002  3.484503700086428E-002 
 3.528333361021125E-002  3.572714331221933E-002  3.617653545305739E-002  3.663158025116172E-002 
 3.709234880820782E-002  3.755891312022015E-002  3.803134608882174E-002  3.850972153262508E-002 
 3.899411419876653E-002  3.948459977458570E-002  3.998125489945163E-002  4.048415717673814E-002 
 4.099338518594918E-002  4.150901849499720E-002  4.203113767263583E-002  4.255982430104878E-002 
 4.309516098859745E-002  4.363723138272836E-002  4.418612018304346E-002  4.474191315453454E-002 
 4.530469714098408E-002  4.587456007853512E-002  4.645159100943086E-002  4.703588009592832E-002 
 4.762751863438609E-002  4.822659906952935E-002  4.883321500889508E-002  4.944746123745781E-002 
 5.006943373244054E-002  5.069922967831109E-002  5.133694748196718E-002  5.198268678811326E-002 
 5.263654849482948E-002  5.329863476933791E-002  5.396904906396605E-002  5.464789613231123E-002 
 5.533528204560919E-002  5.603131420930717E-002  5.673610137984696E-002  5.744975368165795E-002 
 5.817238262436402E-002  5.890410112020789E-002  5.964502350169300E-002  6.039526553944901E-002 
 6.115494446032078E-002  6.192417896568506E-002  6.270308924999858E-002  6.349179701957770E-002 
 6.429042551161622E-002  6.509909951344091E-002  6.591794538200962E-002  6.674709106365548E-002 
 6.758666611407795E-002  6.843680171858685E-002  6.929763071260017E-002  7.016928760239934E-002 
 7.105190858614703E-002  7.194563157516741E-002  7.285059621549594E-002  7.376694390969897E-002 
 7.469481783896774E-002  7.563436298549180E-002  7.658572615511150E-002  7.754905600025781E-002 
 7.852450304317908E-002  7.951221969946004E-002  8.051236030183806E-002  8.152508112431676E-002 
 8.255054040658522E-002  8.358889837874271E-002  8.464031728633468E-002  8.570496141570486E-002 
 8.678299711966417E-002  8.787459284348483E-002  8.897991915121967E-002  9.009914875235278E-002 
 9.123245652878675E-002  9.238001956216707E-002  9.354201716155258E-002  9.471863089143247E-002 
 9.591004460009551E-002  9.711644444835800E-002  9.833801893865030E-002  9.957495894447203E-002 
 1.008274577402158E-001  1.020957110313664E-001  1.033799169850812E-001  1.046802762611528E-001 
 1.059969920433638E-001  1.073302700712344E-001  1.086803186721685E-001  1.100473487940072E-001 
 1.114315740379879E-001  1.128332106921212E-001  1.142524777649864E-001  1.156895970199506E-001 
 1.171447930098217E-001  1.186182931119333E-001  1.201103275636744E-001  1.216211294984639E-001 
 1.231509349821775E-001  1.246999830500348E-001  1.262685157439475E-001  1.278567781503405E-001 
 1.294650184384463E-001  1.310934878990815E-001  1.327424409839130E-001  1.344121353452146E-001 
 1.361028318761274E-001  1.378147947514246E-001  1.395482914687877E-001  1.413035928906064E-001 
 1.430809732862983E-001  1.448807103751667E-001  1.467030853697935E-001  1.485483830199789E-001 
 1.504168916572355E-001  1.523089032398388E-001  1.542247133984481E-001  1.561646214822989E-001 
 1.581289306059754E-001  1.601179476967752E-001  1.621319835426648E-001  1.641713528408430E-001 
 1.662363742469121E-001  1.683273704246676E-001  1.704446680965168E-001  1.725885980945283E-001 
 1.747594954121262E-001  1.769576992564335E-001  1.791835531012726E-001  1.814374047408358E-001 
 1.837196063440268E-001  1.860305145094894E-001  1.883704903213265E-001  1.907398994055187E-001 
 1.931391119870567E-001  1.955685029477869E-001  1.980284518849899E-001  2.005193431706923E-001 
 2.030415660117245E-001  2.055955145105378E-001  2.081815877267802E-001  2.108001897396537E-001 
 2.134517297110507E-001  2.161366219494855E-001  2.188552859748338E-001  2.216081465838798E-001 
 2.243956339166951E-001  2.272181835238461E-001  2.300762364344516E-001  2.329702392250941E-001 
 2.359006440895968E-001  2.388679089096825E-001  2.418724973265154E-001  2.449148788131490E-001 
 2.479955287478808E-001  2.511149284885298E-001  2.542735654476530E-001  2.574719331687004E-001 
 2.607105314031362E-001  2.639898661885239E-001  2.673104499275946E-001  2.706728014683143E-001 
 2.740774461849511E-001  2.775249160601690E-001  2.810157497681508E-001  2.845504927587644E-001 
 2.881296973427944E-001  2.917539227782381E-001  2.954237353576941E-001  2.991397084968443E-001 
 3.029024228240511E-001  3.067124662710846E-001  3.105704341649836E-001  3.144769293210814E-001 
 3.184325621371945E-001  3.224379506889969E-001  3.264937208266003E-001  3.306005062723389E-001 
 3.347589487197944E-001  3.389696979340605E-001  3.432334118532673E-001  3.475507566913906E-001 
 3.519224070423438E-001  3.563490459853890E-001  3.608313651918679E-001  3.653700650332745E-001 
 3.699658546906944E-001  3.746194522656104E-001  3.793315848921122E-001  3.841029888505100E-001 
 3.889344096823787E-001  3.938266023070541E-001  3.987803311395858E-001  4.037963702101830E-001 
 4.088755032851562E-001  4.140185239893808E-001  4.192262359303066E-001  4.244994528235183E-001 
 4.298389986198844E-001  4.352457076342999E-001  4.407204246760467E-001  4.462640051808026E-001 
 4.518773153442985E-001  4.575612322576683E-001  4.633166440444949E-001  4.691444499995776E-001 
 4.750455607294553E-001  4.810208982946839E-001  4.870713963539157E-001  4.931980003097830E-001 
 4.994016674566171E-001  5.056833671300327E-001  5.120440808583823E-001  5.184848025161277E-001 
 5.250065384791328E-001  5.316103077819083E-001  5.382971422768453E-001  5.450680867954362E-001 
 5.519241993115386E-001  5.588665511066827E-001  5.658962269374592E-001  5.730143252050205E-001 
 5.802219581267009E-001  5.875202519098089E-001  5.949103469275985E-001  6.023933978974489E-001 
 6.099705740613006E-001  6.176430593683432E-001  6.254120526600168E-001  6.332787678573301E-001 
 6.412444341505357E-001  6.493102961912004E-001  6.574776142866759E-001  6.657476645970323E-001 
 6.741217393344573E-001  6.826011469651634E-001  6.911872124138470E-001  6.998812772707002E-001 
 7.086847000010464E-001  7.175988561575993E-001  7.266251385953918E-001  7.357649576894214E-001 
 7.450197415550143E-001  7.543909362709794E-001  7.638800061055586E-001  7.734884337452163E-001 
 7.832177205263224E-001  7.930693866697284E-001  8.030449715183136E-001  8.131460337775077E-001 
 8.233741517588364E-001  8.337309236265469E-001  8.442179676473111E-001  8.548369224430951E-001 
 8.655894472471916E-001  8.764772221634742E-001  8.875019484289283E-001  8.986653486794595E-001 
 9.099691672190706E-001  9.214151702924080E-001  9.330051463607359E-001  9.447409063813978E-001 
 9.566242840907706E-001  9.686571362907997E-001  9.808413431391243E-001  9.931788084428498E-001 
 1.005671459956034E+000  1.018321249680890E+000  1.031130154172798E+000  1.044100174849149E+000 
 1.057233338302056E+000  1.070531696615032E+000  1.083997327683617E+000  1.097632335540062E+000 
 1.111438850682087E+000  1.125419030405769E+000  1.139575059142637E+000  1.153909148800977E+000 
 1.168423539111464E+000  1.183120497977115E+000  1.198002321827651E+000  1.213071335978329E+000 
 1.228329894993264E+000  1.243780383053348E+000  1.259425214328778E+000  1.275266833356265E+000 
 1.291307715421016E+000  1.307550366943486E+000  1.323997325871022E+000  1.340651162074422E+000 
 1.357514477749469E+000  1.374589907823552E+000  1.391880120367355E+000  1.409387817011767E+000 
 1.427115733370011E+000  1.445066639465082E+000  1.463243340162582E+000  1.481648675608972E+000 
 1.500285521675363E+000  1.519156790406874E+000  1.538265430477632E+000  1.557614427651529E+000 
 1.577206805248736E+000  1.597045624618115E+000  1.617133985615557E+000  1.637475027088334E+000 
 1.658071927365566E+000  1.678927904754819E+000  1.700046218044995E+000  1.721430167015514E+000 
 1.743083092951904E+000  1.765008379167900E+000  1.787209451534076E+000  1.809689779013160E+000 
 1.832452874202060E+000  1.855502293880706E+000  1.878841639567822E+000  1.902474558083651E+000 
 1.926404742119794E+000  1.950635930816198E+000  1.975171910345389E+000  2.000016514504093E+000 
 2.025173625312250E+000  2.050647173619609E+000  2.076441139719924E+000  2.102559553972870E+000 
 2.129006497433817E+000  2.155786102491483E+000  2.182902553513643E+000  2.210360087500944E+000 
 2.238162994748925E+000  2.266315619518418E+000  2.294822360714312E+000  2.323687672572919E+000 
 2.352916065357950E+000  2.382512106065234E+000  2.412480419136352E+000  2.442825687181186E+000 
 2.473552651709610E+000  2.504666113872350E+000  2.536170935211160E+000  2.568072038418482E+000 
 2.600374408106585E+000  2.633083091586458E+000  2.666203199656445E+000  2.699739907400806E+000 
 2.733698454998367E+000  2.768084148541269E+000  2.802902360864091E+000  2.838158532383352E+000 
 2.873858171947572E+000  2.910006857698074E+000  2.946610237940541E+000  2.983674032027611E+000 
 3.021204031252523E+000  3.059206099754000E+000  3.097686175432572E+000  3.136650270878341E+000 
 3.176104474310500E+000  3.216054950528610E+000  3.256507941875849E+000  3.297469769214429E+000 
 3.338946832913197E+000  3.380945613847748E+000  3.423472674413056E+000  3.466534659548844E+000 
 3.510138297777913E+000  3.554290402257434E+000  3.598997871843568E+000  3.644267692169403E+000 
 3.690106936736453E+000  3.736522768019955E+000  3.783522438587968E+000  3.831113292234647E+000 
 3.879302765127705E+000  3.928098386970310E+000  3.977507782177665E+000  4.027538671068280E+000 
 4.078198871070340E+000  4.129496297943172E+000  4.181438967014077E+000  4.234034994430788E+000 
 4.287292598429583E+000  4.341220100619447E+000  4.395825927282321E+000  4.451118610689702E+000 
 4.507106790435883E+000  4.563799214787843E+000  4.621204742052233E+000  4.679332341959492E+000 
 4.738191097065349E+000  4.797790204170056E+000  4.858138975755336E+000  4.919246841439539E+000 
 4.981123349451010E+000  5.043778168119998E+000  5.107221087389409E+000  5.171462020344440E+000 
 5.236511004761570E+000  5.302378204676968E+000  5.369073911974609E+000  5.436608547994472E+000 
 5.504992665160815E+000  5.574236948631084E+000  5.644352217965459E+000  5.715349428817406E+000 
 5.787239674645585E+000  5.860034188447147E+000  5.933744344512985E+000  6.008381660204962E+000 
 6.083957797755482E+000  6.160484566089821E+000  6.237973922671203E+000  6.316437975369259E+000 
 6.395888984351870E+000  6.476339364000813E+000  6.557801684851608E+000  6.640288675557599E+000 
 6.723813224878919E+000  6.808388383696342E+000  6.894027367050480E+000  6.980743556206738E+000 
 7.068550500746076E+000  7.157461920682232E+000  7.247491708605478E+000  7.338653931853315E+000 
 7.430962834708626E+000  7.524432840625258E+000  7.619078554481816E+000  7.714914764863660E+000 
 7.811956446373617E+000  7.910218761971882E+000  8.009717065345155E+000  8.110466903305786E+000 
 8.212484018220946E+000  8.315784350472367E+000  8.420384040947159E+000  8.526299433559737E+000 
 8.633547077805700E+000  8.742143731347674E+000  8.852106362633686E+000  8.963452153548623E+000 
 9.076198502098825E+000  9.190363025130646E+000  9.305963561083100E+000  9.423018172775086E+000 
 9.541545150227865E+000  9.661563013522773E+000  9.783090515695147E+000  9.906146645664471E+000 
 1.003075063120137E+001  1.015692194193213E+001  1.028468029238073E+001  1.041404564504935E+001 
 1.054503821353757E+001  1.067767846570068E+001  1.081198712684798E+001  1.094798518298100E+001 
 1.108569388407270E+001  1.122513474738782E+001  1.136632956084492E+001  1.150930038642091E+001 
 1.165406956359810E+001  1.180065971285499E+001  1.194909373920066E+001  1.209939483575369E+001 
 1.225158648736623E+001  1.240569247429345E+001  1.256173687590936E+001  1.271974407446919E+001 
 1.287973875891917E+001  1.304174592875428E+001  1.320579089792437E+001  1.337189929878965E+001 