<UPF version="2.0.1">
  <PP_INFO>
    Generated using "atomic" code by A. Dal Corso  v.5.1.2
    Author: ADC
    Generation date: 30Jul2016
    Pseudopotential type: PAW
    Element: Np
    Functional:  SLA  PW   PBX  PBC

    Suggested minimum cutoff for wavefunctions: 111. Ry
    Suggested minimum cutoff for charge density: 551. Ry
    The Pseudo was generated with a Scalar-Relativistic Calculation
    Local Potential by smoothing AE potential with Bessel fncs, cutoff radius:   2.1000
    Pseudopotential contains additional information for GIPAW reconstruction.

    Valence configuration: 
    nl pn  l   occ       Rcut    Rcut US       E pseu
    6S  1  0  2.00      1.400      1.600    -3.777510
    7S  2  0  2.00      1.400      1.600    -0.330854
    6P  2  1  6.00      1.300      2.100    -1.842603
    6D  3  2  1.50      1.500      2.200    -0.195975
    5F  4  3  3.50      1.100      1.300    -0.429734
    Generation configuration:
    6S  1  0  2.00      1.400      1.600    -3.777555
    7S  2  0  2.00      1.400      1.600    -0.330862
    6P  2  1  6.00      1.300      2.100    -1.842640
    7P  3  1  0.00      1.300      2.100     5.000000
    6D  3  2  1.50      1.500      2.200    -0.195990
    6D  3  2  0.00      1.500      2.200     4.800000
    5F  4  3  3.50      1.100      1.300    -0.429789
    5F  4  3  0.00      1.100      1.300     3.100000

    Pseudization used: troullier-martins
<PP_INPUTFILE>
 &input
   title='Np',
   zed=93.0,
   rel=1,
   config='[Rn] 6d1.5 7s2.0 7p0. 5f3.5',
   iswitch=3,
   dft='PBE'
 /
 &inputp
   lpaw=.true.,
   pseudotype=3,
   file_pseudopw='Np.pbe-spfn-kjpaw_psl.1.0.0.UPF',
   author='ADC',
   lloc=-1,
   rcloc=2.1,
   which_augfun='PSQ',
   rmatch_augfun_nc=.true.,
   nlcc=.true.,
   new_core_ps=.true.,
   rcore=1.1,
   tm=.true.
 /
8
6S  1  0  2.00  0.00  1.40  1.60  0.0
7S  2  0  2.00  0.00  1.40  1.60  0.0
6P  2  1  6.00  0.00  1.30  2.10  0.0
7P  3  1  0.00  5.00  1.30  2.10  0.0
6D  3  2  1.50  0.00  1.50  2.20  0.0
6D  3  2  0.00  4.80  1.50  2.20  0.0
5F  4  3  3.50  0.00  1.10  1.30  0.0
5F  4  3  0.00  3.10  1.10  1.30  0.0
</PP_INPUTFILE>
  </PP_INFO>
  <!--                               -->
  <!-- END OF HUMAN READABLE SECTION -->
  <!--                               -->
  <PP_HEADER generated='Generated using "atomic" code by A. Dal Corso  v.5.1.2'
             author="ADC"
             date="30Jul2016"
             comment=""
             element="Np"
             pseudo_type="PAW"
             relativistic="scalar"
             is_ultrasoft="T"
             is_paw="T"
             is_coulomb="F"
             has_so="F"
             has_wfc="T"
             has_gipaw="T"
             paw_as_gipaw="T"
             core_correction="T"
             functional=" SLA  PW   PBX  PBC"
             z_valence="1.500000000000000E+001"
             total_psenergy="-1.062337561487179E+003"
             wfc_cutoff="1.109311513132492E+002"
             rho_cutoff="5.506093305253412E+002"
             l_max="3"
             l_max_rho="6"
             l_local="-1"
             mesh_size="1293"
             number_of_wfc="5"
             number_of_proj="8"/>
  <PP_MESH dx="1.250000000000000E-002" mesh="1293" xmin="-7.000000000000000E+000" rmax="1.000000000000000E+002"
zmesh="9.300000000000000E+001">
    <PP_R type="real" size="1293" columns="4">
 9.805182425317379E-006  9.928516437301315E-006  1.005340180017830E-005  1.017985802754037E-005 
 1.030790487843032E-005  1.043756236042913E-005  1.056885073278214E-005  1.070179050956464E-005 
 1.083640246288721E-005  1.097270762614145E-005  1.111072729728642E-005  1.125048304217654E-005 
 1.139199669793129E-005  1.153529037634728E-005  1.168038646735331E-005  1.182730764250880E-005 
 1.197607685854627E-005  1.212671736095841E-005  1.227925268763019E-005  1.243370667251675E-005 
 1.259010344936747E-005  1.274846745549691E-005  1.290882343560323E-005  1.307119644563457E-005 
 1.323561185670410E-005  1.340209535905430E-005  1.357067296607112E-005  1.374137101834865E-005 
 1.391421618780482E-005  1.408923548184903E-005  1.426645624760206E-005  1.444590617616911E-005 
 1.462761330696660E-005  1.481160603210341E-005  1.499791310081719E-005  1.518656362396647E-005 
 1.537758707857930E-005  1.557101331245909E-005  1.576687254884842E-005  1.596519539115147E-005 
 1.616601282771583E-005  1.636935623667453E-005  1.657525739084893E-005  1.678374846271325E-005 
 1.699486202942169E-005  1.720863107789854E-005  1.742508900999255E-005  1.764426964769598E-005 
 1.786620723842940E-005  1.809093646039292E-005  1.831849242798467E-005  1.854891069728755E-005 
 1.878222727162494E-005  1.901847860718624E-005  1.925770161872333E-005  1.949993368531844E-005 
 1.974521265622481E-005  1.999357685678066E-005  2.024506509439761E-005  2.049971666462448E-005 
 2.075757135728720E-005  2.101866946270610E-005  2.128305177799136E-005  2.155075961341762E-005 
 2.182183479887886E-005  2.209631969042429E-005  2.237425717687666E-005  2.265569068653370E-005 
 2.294066419395385E-005  2.322922222682747E-005  2.352140987293425E-005  2.381727278718836E-005 
 2.411685719877208E-005  2.442020991835921E-005  2.472737834542942E-005  2.503841047567434E-005 
 2.535335490849713E-005  2.567226085460617E-005  2.599517814370434E-005  2.632215723227508E-005 
 2.665324921146622E-005  2.698850581507310E-005  2.732797942762213E-005  2.767172309255591E-005 
 2.801979052052149E-005  2.837223609776260E-005  2.872911489461775E-005  2.909048267412502E-005 
 2.945639590073515E-005  2.982691174913429E-005  3.020208811317756E-005  3.058198361493513E-005 
 3.096665761385207E-005  3.135617021602331E-005  3.175058228358545E-005  3.214995544422646E-005 
 3.255435210081522E-005  3.296383544115208E-005  3.337846944784203E-005  3.379831890829226E-005 
 3.422344942483513E-005  3.465392742497878E-005  3.508982017178654E-005  3.553119577438690E-005 
 3.597812319861583E-005  3.643067227779260E-005  3.688891372363155E-005  3.735291913729090E-005 
 3.782276102056052E-005  3.829851278719064E-005  3.878024877436269E-005  3.926804425430477E-005 
 3.976197544605303E-005  4.026211952736108E-005  4.076855464675923E-005  4.128135993576520E-005 
 4.180061552124872E-005  4.232640253795143E-005  4.285880314116442E-005  4.339790051956514E-005 
 4.394377890821577E-005  4.449652360172512E-005  4.505622096757612E-005  4.562295845962087E-005 
 4.619682463174559E-005  4.677790915170720E-005  4.736630281514415E-005  4.796209755976346E-005 
 4.856538647970609E-005  4.917626384009326E-005  4.979482509175533E-005  5.042116688614635E-005 
 5.105538709044600E-005  5.169758480285146E-005  5.234786036806197E-005  5.300631539295755E-005 
 5.367305276247545E-005  5.434817665568618E-005  5.503179256207152E-005  5.572400729800779E-005 
 5.642492902345575E-005  5.713466725886102E-005  5.785333290226689E-005  5.858103824664220E-005 
 5.931789699742765E-005  6.006402429030214E-005  6.081953670917321E-005  6.158455230439339E-005 
 6.235919061120582E-005  6.314357266842207E-005  6.393782103733435E-005  6.474205982086622E-005 
 6.555641468296385E-005  6.638101286823119E-005  6.721598322181249E-005  6.806145620952416E-005 
 6.891756393824067E-005  6.978444017653642E-005  7.066222037558724E-005  7.155104169033520E-005 
 7.245104300091900E-005  7.336236493437449E-005  7.428514988660787E-005  7.521954204464528E-005 
 7.616568740916263E-005  7.712373381729783E-005  7.809383096575152E-005  7.907613043417674E-005 
 8.007078570886385E-005  8.107795220672339E-005  8.209778729956947E-005  8.313045033871044E-005 
 8.417610267984702E-005  8.523490770828488E-005  8.630703086446410E-005  8.739263966980872E-005 
 8.849190375290355E-005  8.960499487599794E-005  9.073208696184442E-005  9.187335612087470E-005 
 9.302898067871650E-005  9.419914120405837E-005  9.538402053686299E-005  9.658380381693672E-005 
 9.779867851285833E-005  9.902883445127033E-005  1.002744638465411E-004  1.015357613307980E-004 
 1.028129239843388E-004  1.041061513664268E-004  1.054156455464713E-004  1.067416111356023E-004 
 1.080842553186407E-004  1.094437878864717E-004  1.108204212688253E-004  1.122143705674678E-004 
 1.136258535898135E-004  1.150550908829562E-004  1.165023057681307E-004  1.179677243756074E-004 
 1.194515756800248E-004  1.209540915361684E-004  1.224755067151976E-004  1.240160589413293E-004 
 1.255759889289834E-004  1.271555404203937E-004  1.287549602236948E-004  1.303744982514849E-004 
 1.320144075598756E-004  1.336749443880333E-004  1.353563681982150E-004  1.370589417163126E-004 
 1.387829309729019E-004  1.405286053448116E-004  1.422962375972144E-004  1.440861039262455E-004 
 1.458984840021606E-004  1.477336610130338E-004  1.495919217090067E-004  1.514735564470939E-004 
 1.533788592365511E-004  1.553081277848159E-004  1.572616635440239E-004  1.592397717581118E-004 
 1.612427615105131E-004  1.632709457724510E-004  1.653246414518434E-004  1.674041694428182E-004 
 1.695098546758547E-004  1.716420261685551E-004  1.738010170770524E-004  1.759871647480691E-004 
 1.782008107716264E-004  1.804423010344189E-004  1.827119857738611E-004  1.850102196328106E-004 
 1.873373617149840E-004  1.896937756410663E-004  1.920798296055273E-004  1.944958964341539E-004 
 1.969423536423030E-004  1.994195834938912E-004  2.019279730611227E-004  2.044679142849705E-004 
 2.070398040364186E-004  2.096440441784731E-004  2.122810416289546E-004  2.149512084240799E-004 
 2.176549617828429E-004  2.203927241722071E-004  2.231649233731155E-004  2.259719925473337E-004 
 2.288143703051309E-004  2.316925007738148E-004  2.346068336671266E-004  2.375578243555101E-004 
 2.405459339372645E-004  2.435716293105911E-004  2.466353832465477E-004  2.497376744629202E-004 
 2.528789876990227E-004  2.560598137914396E-004  2.592806497507191E-004  2.625419988390326E-004 
 2.658443706488107E-004  2.691882811823672E-004  2.725742529325263E-004  2.760028149642627E-004 
 2.794745029973693E-004  2.829898594901647E-004  2.865494337242525E-004  2.901537818903493E-004 
 2.938034671751889E-004  2.974990598495224E-004  3.012411373572239E-004  3.050302844055172E-004 
 3.088670930563380E-004  3.127521628188438E-004  3.166861007430892E-004  3.206695215148786E-004 
 3.247030475518119E-004  3.287873091005387E-004  3.329229443352354E-004  3.371105994573214E-004 
 3.413509287964296E-004  3.456445949126459E-004  3.499922687000369E-004  3.543946294914771E-004 
 3.588523651647966E-004  3.633661722502641E-004  3.679367560394197E-004  3.725648306952798E-004 
 3.772511193639252E-004  3.819963542874943E-004  3.868012769185986E-004  3.916666380361746E-004 
 3.965931978627959E-004  4.015817261834583E-004  4.066330024658611E-004  4.117478159822007E-004 
 4.169269659324947E-004  4.221712615694604E-004  4.274815223249604E-004  4.328585779380414E-004 
 4.383032685845831E-004  4.438164450085758E-004  4.493989686550529E-004  4.550517118046916E-004 
 4.607755577101096E-004  4.665714007338750E-004  4.724401464882518E-004  4.783827119767046E-004 
 4.844000257371809E-004  4.904930279871979E-004  4.966626707707540E-004  5.029099181070859E-004 
 5.092357461413004E-004  5.156411432968975E-004  5.221271104302147E-004  5.286946609868127E-004 
 5.353448211598274E-004  5.420786300503158E-004  5.488971398296174E-004  5.558014159037572E-004 
 5.627925370799181E-004  5.698715957350086E-004  5.770396979863456E-004  5.842979638644892E-004 
 5.916475274882501E-004  5.990895372418967E-004  6.066251559545951E-004  6.142555610820999E-004 
 6.219819448907364E-004  6.298055146436942E-004  6.377274927896636E-004  6.457491171538488E-004 
 6.538716411313761E-004  6.620963338831423E-004  6.704244805341232E-004  6.788573823741761E-004 
 6.873963570613717E-004  6.960427388278769E-004  7.047978786884339E-004  7.136631446514585E-004 
 7.226399219327931E-004  7.317296131721527E-004  7.409336386522858E-004  7.502534365208996E-004 
 7.596904630153723E-004  7.692461926902927E-004  7.789221186478651E-004  7.887197527712057E-004 
 7.986406259605796E-004  8.086862883726068E-004  8.188583096624766E-004  8.291582792292120E-004 
 8.395878064640126E-004  8.501485210017278E-004  8.608420729754901E-004  8.716701332745510E-004 
 8.826343938053634E-004  8.937365677559416E-004  9.049783898635528E-004  9.163616166857728E-004 
 9.278880268749516E-004  9.395594214561332E-004  9.513776241084657E-004  9.633444814501582E-004 
 9.754618633270167E-004  9.877316631046117E-004  1.000155797964124E-003  1.012736209201900E-003 
 1.025474862532792E-003  1.038373748397300E-003  1.051434882272581E-003  1.064660304987380E-003 
 1.078052083040900E-003  1.091612308925711E-003  1.105343101454693E-003  1.119246606092114E-003 
 1.133324995288864E-003  1.147580468821895E-003  1.162015254137950E-003  1.176631606701602E-003 
 1.191431810347677E-003  1.206418177638105E-003  1.221593050223266E-003  1.236958799207875E-003 
 1.252517825521473E-003  1.268272560293576E-003  1.284225465233544E-003  1.300379033015233E-003 
 1.316735787666472E-003  1.333298284963455E-003  1.350069112830079E-003  1.367050891742318E-003 
 1.384246275137680E-003  1.401657949829803E-003  1.419288636428283E-003  1.437141089763769E-003 
 1.455218099318416E-003  1.473522489661747E-003  1.492057120891992E-003  1.510824889082991E-003 
 1.529828726736706E-003  1.549071603241433E-003  1.568556525335779E-003  1.588286537578461E-003 
 1.608264722824034E-003  1.628494202704588E-003  1.648978138117510E-003  1.669719729719387E-003 
 1.690722218426104E-003  1.711988885919251E-003  1.733523055158891E-003  1.755328090902779E-003 
 1.777407400232113E-003  1.799764433083899E-003  1.822402682790002E-003  1.845325686622998E-003 
 1.868537026348872E-003  1.892040328786683E-003  1.915839266375253E-003  1.939937557746999E-003 
 1.964338968308976E-003  1.989047310831229E-003  2.014066446042549E-003  2.039400283233713E-003 
 2.065052780868325E-003  2.091027947201330E-003  2.117329840905313E-003  2.143962571704679E-003 
 2.170930301017801E-003  2.198237242607249E-003  2.225887663238202E-003  2.253885883345138E-003 
 2.282236277706915E-003  2.310943276130330E-003  2.340011364142290E-003  2.369445083690688E-003 
 2.399249033854084E-003  2.429427871560332E-003  2.459986312314220E-003  2.490929130934289E-003 
 2.522261162298901E-003  2.553987302101700E-003  2.586112507616583E-003  2.618641798472267E-003 
 2.651580257436630E-003  2.684933031210900E-003  2.718705331233833E-003  2.752902434496023E-003 
 2.787529684364426E-003  2.822592491417284E-003  2.858096334289535E-003  2.894046760528859E-003 
 2.930449387462502E-003  2.967309903074981E-003  3.004634066896854E-003  3.042427710904656E-003 
 3.080696740432151E-003  3.119447135093069E-003  3.158684949715408E-003  3.198416315287535E-003 
 3.238647439916154E-003  3.279384609796336E-003  3.320634190193762E-003  3.362402626439289E-003 
 3.404696444936058E-003  3.447522254179257E-003  3.490886745788707E-003  3.534796695554454E-003 
 3.579258964495480E-003  3.624280499931769E-003  3.669868336569827E-003  3.716029597601876E-003 
 3.762771495818876E-003  3.810101334737514E-003  3.858026509741417E-003  3.906554509236683E-003 
 3.955692915821960E-003  4.005449407473259E-003  4.055831758743625E-003  4.106847841977948E-003 
 4.158505628543027E-003  4.210813190073107E-003  4.263778699731107E-003  4.317410433485665E-003 
 4.371716771404294E-003  4.426706198962783E-003  4.482387308371058E-003  4.538768799915759E-003 
 4.595859483319643E-003  4.653668279118145E-003  4.712204220053222E-003  4.771476452484730E-003 
 4.831494237819588E-003  4.892266953958857E-003  4.953804096763076E-003  5.016115281536007E-003 
 5.079210244527040E-003  5.143098844452518E-003  5.207791064036157E-003  5.273297011568885E-003 
 5.339626922488278E-003  5.406791160977859E-003  5.474800221586551E-003  5.543664730868434E-003 
 5.613395449043187E-003  5.684003271677395E-003  5.755499231386992E-003  5.827894499561153E-003 
 5.901200388107813E-003  5.975428351221201E-003  6.050589987171571E-003  6.126697040117451E-003 
 6.203761401940718E-003  6.281795114104688E-003  6.360810369535650E-003  6.440819514528019E-003 
 6.521835050673478E-003  6.603869636814386E-003  6.686936091021724E-003  6.771047392597961E-003 
 6.856216684105095E-003  6.942457273418194E-003  7.029782635804811E-003  7.118206416030476E-003 
 7.207742430490749E-003  7.298404669370052E-003  7.390207298827658E-003  7.483164663211205E-003 
 7.577291287297996E-003  7.672601878564547E-003  7.769111329484652E-003  7.866834719856363E-003 
 7.965787319158257E-003  8.065984588935291E-003  8.167442185214719E-003  8.270175960952378E-003 
 8.374201968509730E-003  8.479536462162115E-003  8.586195900638466E-003  8.694196949693041E-003 
 8.803556484709488E-003  8.914291593337639E-003  9.026419578163521E-003  9.139957959412887E-003 
 9.254924477688798E-003  9.371337096743640E-003  9.489214006285973E-003  9.608573624822751E-003 
 9.729434602537203E-003  9.851815824202990E-003  9.975736412134985E-003  1.010121572917716E-002 
 1.022827338172811E-002  1.035692922280454E-002  1.048720335514337E-002  1.061911613434282E-002 
 1.075268817204301E-002  1.088794033914661E-002  1.102489376907989E-002  1.116356986109490E-002 
 1.130399028361317E-002  1.144617697761139E-002  1.159015216004980E-002  1.173593832734357E-002 
 1.188355825887794E-002  1.203303502056754E-002  1.218439196846050E-002  1.233765275238788E-002 
 1.249284131965896E-002  1.264998191880313E-002  1.280909910335870E-002  1.297021773570947E-002 
 1.313336299096957E-002  1.329856036091705E-002  1.346583565797704E-002  1.363521501925506E-002 
 1.380672491062087E-002  1.398039213084399E-002  1.415624381578088E-002  1.433430744261509E-002 
 1.451461083415058E-002  1.469718216315910E-002  1.488204995678228E-002  1.506924310098896E-002 
 1.525879084508880E-002  1.545072280630242E-002  1.564506897438926E-002  1.584185971633350E-002 
 1.604112578108893E-002  1.624289830438359E-002  1.644720881358473E-002  1.665408923262509E-002 
 1.686357188699106E-002  1.707568950877359E-002  1.729047524178262E-002  1.750796264672592E-002 
 1.772818570645299E-002  1.795117883126498E-002  1.817697686429131E-002  1.840561508693404E-002 
 1.863712922438061E-002  1.887155545118601E-002  1.910893039692515E-002  1.934929115191623E-002 
 1.959267527301623E-002  1.983912078948926E-002  2.008866620894863E-002  2.034135052337387E-002 
 2.059721321520319E-002  2.085629426350274E-002  2.111863415021343E-002  2.138427386647626E-002 
 2.165325491903739E-002  2.192561933673350E-002  2.220140967705901E-002  2.248066903281567E-002 
 2.276344103884597E-002  2.304976987885118E-002  2.333970029229509E-002  2.363327758139466E-002 
 2.393054761819859E-002  2.423155685175493E-002  2.453635231536886E-002  2.484498163395166E-002 
 2.515749303146228E-002  2.547393533844238E-002  2.579435799964622E-002  2.611881108176654E-002 
 2.644734528125754E-002  2.678001193225626E-002  2.711686301460376E-002  2.745795116196696E-002 
 2.780332967006287E-002  2.815305250498604E-002  2.850717431164095E-002  2.886575042228035E-002 
 2.922883686515102E-002  2.959649037324847E-002  2.996876839318120E-002  3.034572909414731E-002 
 3.072743137702329E-002  3.111393488356732E-002  3.150530000573876E-002  3.190158789513407E-002 
 3.230286047254228E-002  3.270918043762006E-002  3.312061127868850E-002  3.353721728265371E-002 
 3.395906354505128E-002  3.438621598021801E-002  3.481874133159100E-002  3.525670718213628E-002 
 3.570018196490915E-002  3.614923497374656E-002  3.660393637409481E-002  3.706435721397287E-002 
 3.753056943507356E-002  3.800264588400509E-002  3.848066032367291E-002  3.896468744480582E-002 
 3.945480287762631E-002  3.995108320366778E-002  4.045360596774102E-002  4.096244969005013E-002 
 4.147769387846208E-002  4.199941904092962E-002  4.252770669807072E-002  4.306263939590677E-002 
 4.360430071875996E-002  4.415277530231410E-002  4.470814884683882E-002  4.527050813058021E-002 
 4.583994102332067E-002  4.641653650010800E-002  4.700038465515868E-002  4.759157671593481E-002 
 4.819020505739854E-002  4.879636321644631E-002  4.941014590652355E-002  5.003164903242439E-002 
 5.066096970527682E-002  5.129820625771616E-002  5.194345825925036E-002  5.259682653181727E-002 
 5.325841316553885E-002  5.392832153467272E-002  5.460665631376432E-002  5.529352349400313E-002 
 5.598903039978334E-002  5.669328570547408E-002  5.740639945239978E-002  5.812848306603405E-002 
 5.885964937341081E-002  5.960001262075294E-002  6.034968849132424E-002  6.110879412350482E-002 
 6.187744812909388E-002  6.265577061184387E-002  6.344388318622600E-002  6.424190899643356E-002 
 6.504997273562312E-002  6.586820066539770E-002  6.669672063553625E-002  6.753566210396952E-002 
 6.838515615700892E-002  6.924533552982864E-002  7.011633462720551E-002  7.099828954452080E-002 
 7.189133808902443E-002  7.279561980136853E-002  7.371127597741056E-002  7.463844969029071E-002 
 7.557728581278818E-002  7.652793103995696E-002  7.749053391204801E-002  7.846524483771868E-002 
 7.945221611753388E-002  8.045160196776437E-002  8.146355854448224E-002  8.248824396796159E-002 
 8.352581834738471E-002  8.457644380585905E-002  8.564028450575033E-002  8.671750667433199E-002 
 8.780827862975964E-002  8.891277080737069E-002  9.003115578631468E-002  9.116360831652023E-002 
 9.231030534599889E-002  9.347142604849464E-002  9.464715185147970E-002  9.583766646450255E-002 
 9.704315590789388E-002  9.826380854183148E-002  9.949981509577301E-002  1.007513686982574E-001 
 1.020186649070809E-001  1.033019017398550E-001  1.046012797049450E-001  1.059170018328019E-001 
 1.072492737076852E-001  1.085983034997855E-001  1.099643019977528E-001  1.113474826416311E-001 
 1.127480615562104E-001  1.141662575847958E-001  1.156022923234017E-001  1.170563901553779E-001 
 1.185287782864689E-001  1.200196867803157E-001  1.215293485944042E-001  1.230579996164637E-001 
 1.246058787013269E-001  1.261732277082496E-001  1.277602915387032E-001  1.293673181746402E-001 
 1.309945587172416E-001  1.326422674261534E-001  1.343107017592130E-001  1.360001224126798E-001 
 1.377107933619682E-001  1.394429819028939E-001  1.411969586934412E-001  1.429729977960515E-001 
 1.447713767204485E-001  1.465923764669975E-001  1.484362815706139E-001  1.503033801452220E-001 
 1.521939639287721E-001  1.541083283288274E-001  1.560467724687196E-001  1.580095992342897E-001 
 1.599971153212134E-001  1.620096312829225E-001  1.640474615791310E-001  1.661109246249680E-001 
 1.682003428407330E-001  1.703160427022735E-001  1.724583547919965E-001  1.746276138505254E-001 
 1.768241588290007E-001  1.790483329420446E-001  1.813004837213876E-001  1.835809630701705E-001 
 1.858901273179319E-001  1.882283372762827E-001  1.905959582952865E-001  1.929933603205447E-001 
 1.954209179510007E-001  1.978790104974739E-001  2.003680220419249E-001  2.028883414974719E-001 
 2.054403626691577E-001  2.080244843154819E-001  2.106411102107099E-001  2.132906492079606E-001 
 2.159735153030932E-001  2.186901276993938E-001  2.214409108730757E-001  2.242262946396068E-001 
 2.270467142208669E-001  2.299026103131542E-001  2.327944291560438E-001  2.357226226021126E-001 
 2.386876481875448E-001  2.416899692036196E-001  2.447300547691046E-001  2.478083799035548E-001 
 2.509254256015346E-001  2.540816789077769E-001  2.572776329932812E-001  2.605137872323761E-001 
 2.637906472807460E-001  2.671087251544392E-001  2.704685393098752E-001  2.738706147248505E-001 
 2.773154829805706E-001  2.808036823447096E-001  2.843357578555140E-001  2.879122614069694E-001 
 2.915337518350313E-001  2.952007950049473E-001  2.989139638996741E-001  3.026738387094049E-001 
 3.064810069222292E-001  3.103360634159251E-001  3.142396105509134E-001  3.181922582643761E-001 
 3.221946241655594E-001  3.262473336322791E-001  3.303510199086337E-001  3.345063242039533E-001 
 3.387138957929889E-001  3.429743921173602E-001  3.472884788882873E-001  3.516568301906040E-001 
 3.560801285880894E-001  3.605590652301179E-001  3.650943399596511E-001  3.696866614225939E-001 
 3.743367471785167E-001  3.790453238127800E-001  3.838131270500635E-001  3.886409018693219E-001 
 3.935294026201940E-001  3.984793931408666E-001  4.034916468774301E-001  4.085669470047291E-001 
 4.137060865487326E-001  4.189098685104518E-001  4.241791059914038E-001  4.295146223206660E-001 
 4.349172511835208E-001  4.403878367517183E-001  4.459272338153851E-001  4.515363079165807E-001 
 4.572159354845460E-001  4.629670039726447E-001  4.687904119970270E-001  4.746870694770461E-001 
 4.806578977774286E-001  4.867038298522448E-001  4.928258103906830E-001  4.990247959646557E-001 
 5.053017551782726E-001  5.116576688191796E-001  5.180935300118152E-001  5.246103443725856E-001 
 5.312091301669912E-001  5.378909184687399E-001  5.446567533208458E-001  5.515076918987710E-001 
 5.584448046756074E-001  5.654691755893382E-001  5.725819022122117E-001  5.797840959222319E-001 
 5.870768820768197E-001  5.944614001886503E-001  6.019388041037006E-001  6.095102621815470E-001 
 6.171769574779166E-001  6.249400879295482E-001  6.328008665413706E-001  6.407605215760321E-001 
 6.488202967458285E-001  6.569814514070255E-001  6.652452607566439E-001  6.736130160317088E-001 
 6.820860247110037E-001  6.906656107193758E-001  6.993531146345915E-001  7.081498938968139E-001 
 7.170573230207012E-001  7.260767938101736E-001  7.352097155758949E-001  7.444575153554693E-001 
 7.538216381364286E-001  7.633035470820101E-001  7.729047237597749E-001  7.826266683731156E-001 
 7.924708999956542E-001  8.024389568086119E-001  8.125323963411472E-001  8.227527957137193E-001 
 8.331017518845265E-001  8.435808818990231E-001  8.541918231425950E-001  8.649362335964013E-001 
 8.758157920964316E-001  8.868321985958399E-001  8.979871744305513E-001  9.092824625882365E-001 
 9.207198279806522E-001  9.323010577194075E-001  9.440279613952142E-001  9.559023713606272E-001 
 9.679261430163636E-001  9.801011551012091E-001  9.924293099855687E-001  1.004912533968728E+000 
 1.017552777579830E+000  1.030352015882654E+000  1.043312248784231E+000  1.056435501347313E+000 
 1.069723824106817E+000  1.083179293390206E+000  1.096804011641932E+000  1.110600107751945E+000 
 1.124569737388325E+000  1.138715083334129E+000  1.153038355828436E+000  1.167541792911716E+000 
 1.182227660775523E+000  1.197098254116584E+000  1.212155896495369E+000  1.227402940699129E+000 
 1.242841769109545E+000  1.258474794074967E+000  1.274304458287348E+000  1.290333235163931E+000 
 1.306563629233709E+000  1.322998176528780E+000  1.339639444980596E+000  1.356490034821206E+000 
 1.373552578989560E+000  1.390829743542892E+000  1.408324228073318E+000  1.426038766129641E+000 
 1.443976125644468E+000  1.462139109366722E+000  1.480530555299556E+000  1.499153337143819E+000 
 1.518010364747065E+000  1.537104584558215E+000  1.556438980087969E+000  1.576016572374959E+000 
 1.595840420457813E+000  1.615913621853129E+000  1.636239313039458E+000  1.656820669947408E+000 
 1.677660908455861E+000  1.698763284894489E+000  1.720131096552545E+000  1.741767682194068E+000 
 1.763676422579591E+000  1.785860740994367E+000  1.808324103783284E+000  1.831070020892485E+000 
 1.854102046417789E+000  1.877423779160048E+000  1.901038863187446E+000  1.924950988404911E+000 
 1.949163891130660E+000  1.973681354680000E+000  1.998507209956498E+000  2.023645336050543E+000 
 2.049099660845484E+000  2.074874161631361E+000  2.100972865726354E+000  2.127399851106083E+000 
 2.154159247040772E+000  2.181255234740483E+000  2.208692048008423E+000  2.236473973902480E+000 
 2.264605353405105E+000  2.293090582101570E+000  2.321934110866819E+000  2.351140446560905E+000 
 2.380714152733195E+000  2.410659850335455E+000  2.440982218443851E+000  2.471685994990095E+000 
 2.502775977501745E+000  2.534257023851813E+000  2.566134053017848E+000  2.598412045850503E+000 
 2.631096045851832E+000  2.664191159963337E+000  2.697702559363920E+000  2.731635480277927E+000 
 2.765995224793279E+000  2.800787161689966E+000  2.836016727278917E+000  2.871689426251421E+000 
 2.907810832539279E+000  2.944386590185705E+000  2.981422414227247E+000  3.018924091586769E+000 
 3.056897481977644E+000  3.095348518819391E+000  3.134283210164733E+000  3.173707639638412E+000 
 3.213627967387748E+000  3.254050431045159E+000  3.294981346702845E+000  3.336427109899639E+000 
 3.378394196620368E+000  3.420889164307721E+000  3.463918652886845E+000  3.507489385802885E+000 
 3.551608171071494E+000  3.596281902342635E+000  3.641517559977716E+000  3.687322212140262E+000 
 3.733703015900377E+000  3.780667218352998E+000  3.828222157750313E+000  3.876375264648363E+000 
 3.925134063068052E+000  3.974506171670852E+000  4.024499304949163E+000  4.075121274431780E+000 
 4.126379989904432E+000  4.178283460645686E+000  4.230839796678456E+000  4.284057210037161E+000 
 4.337944016050916E+000  4.392508634642802E+000  4.447759591645471E+000  4.503705520133379E+000 
 4.560355161771662E+000  4.617717368182086E+000  4.675801102326115E+000  4.734615439905364E+000 
 4.794169570779759E+000  4.854472800403393E+000  4.915534551278591E+000  4.977364364428167E+000 
 5.039971900886204E+000  5.103366943207666E+000  5.167559396996875E+000  5.232559292455346E+000 
 5.298376785948998E+000  5.365022161595076E+000  5.432505832869134E+000  5.500838344232088E+000 
 5.570030372777871E+000  5.640092729901725E+000  5.711036362989474E+000  5.782872357128144E+000 
 5.855611936837951E+000  5.929266467826223E+000  6.003847458763290E+000  6.079366563080701E+000 
 6.155835580792171E+000  6.233266460337274E+000  6.311671300448483E+000  6.391062352041594E+000 
 6.471452020129917E+000  6.552852865762667E+000  6.635277607987566E+000  6.718739125838289E+000 
 6.803250460346818E+000  6.888824816581084E+000  6.975475565708376E+000  7.063216247084513E+000 
 7.152060570369482E+000  7.242022417669564E+000  7.333115845706403E+000  7.425355088013488E+000 
 7.518754557160062E+000  7.613328847003219E+000  7.709092734968171E+000  7.806061184357219E+000 
 7.904249346687892E+000  8.003672564060290E+000  8.104346371554422E+000  8.206286499657544E+000 
 8.309508876722042E+000  8.414029631454373E+000  8.519865095435076E+000  8.627031805670741E+000 