<UPF version="2.0.1">
  <PP_INFO>
    Generated using "atomic" code by A. Dal Corso  v.5.1.2
    Author: ADC
    Generation date: 30Jul2016
    Pseudopotential type: USPP
    Element:  P
    Functional: PBE

    Suggested minimum cutoff for wavefunctions:  34. Ry
    Suggested minimum cutoff for charge density: 138. Ry
    The Pseudo was generated with a Scalar-Relativistic Calculation
    L component and cutoff radius for Local Potential:  2   1.7000
    Pseudopotential contains additional information for GIPAW reconstruction.

    Valence configuration: 
    nl pn  l   occ       Rcut    Rcut US       E pseu
    3S  1  0  2.00      1.500      1.800    -1.026727
    3P  2  1  3.00      1.500      1.800    -0.404747
    Generation configuration:
    3S  1  0  2.00      1.500      1.800    -1.026724
    3S  1  0  0.00      1.500      1.800     6.000000
    3P  2  1  3.00      1.500      1.800    -0.404745
    3P  2  1  0.00      1.500      1.800     3.000000
    3D  3  2  0.00      1.700      1.700     1.500000

    Pseudization used: troullier-martins
<PP_INPUTFILE>
 &input
   title='P',
   zed=15.,
   rel=1,
   config='[Ne] 3s2 3p3 3d-1',
   iswitch=3,
   dft='PBE'
 /
 &inputp
   lpaw=.false.,
   pseudotype=3,
   file_pseudopw='P.pbe-nl-rrkjus_psl.1.0.0.UPF',
   author='ADC',
   lloc=2,
   which_augfun='PSQ',
   rmatch_augfun_nc=.true.,
   nlcc=.true.,
   new_core_ps=.true.,
   rcore=1.5,
   tm=.true.
 /
5
3S  1  0  2.00  0.00  1.50  1.80  0.0
3S  1  0  0.00  6.00  1.50  1.80  0.0
3P  2  1  3.00  0.00  1.50  1.80  0.0
3P  2  1  0.00  3.00  1.50  1.80  0.0
3D  3  2  0.00  1.50  1.70  1.70  0.0
</PP_INPUTFILE>
  </PP_INFO>
  <!--                               -->
  <!-- END OF HUMAN READABLE SECTION -->
  <!--                               -->
  <PP_HEADER generated='Generated using "atomic" code by A. Dal Corso  v.5.1.2'
             author="ADC"
             date="30Jul2016"
             comment=""
             element=" P"
             pseudo_type="USPP"
             relativistic="scalar"
             is_ultrasoft="T"
             is_paw="F"
             is_coulomb="F"
             has_so="F"
             has_wfc="F"
             has_gipaw="T"
             paw_as_gipaw="F"
             core_correction="T"
             functional="PBE"
             z_valence="5.000000000000000E+000"
             total_psenergy="-1.365146112634799E+001"
             wfc_cutoff="3.441404340942989E+001"
             rho_cutoff="1.376561736377195E+002"
             l_max="2"
             l_max_rho="4"
             l_local="2"
             mesh_size="1147"
             number_of_wfc="2"
             number_of_proj="4"/>
  <PP_MESH dx="1.250000000000000E-002" mesh="1147" xmin="-7.000000000000000E+000" rmax="1.000000000000000E+002"
zmesh="1.500000000000000E+001">
    <PP_R type="real" size="1147" columns="4">
 6.079213103696775E-005  6.155680191126815E-005  6.233109116110548E-005  6.311511977075026E-005 
 6.390901024626799E-005  6.471288663466059E-005  6.552687454324924E-005  6.635110115930076E-005 
 6.718569526990070E-005  6.803078728207697E-005  6.888650924317580E-005  6.975299486149457E-005 
 7.063037952717400E-005  7.151880033335313E-005  7.241839609759053E-005  7.332930738355455E-005 
 7.425167652298689E-005  7.518564763794216E-005  7.613136666330717E-005  7.708898136960384E-005 
 7.805864138607830E-005  7.904049822408085E-005  8.003470530074005E-005  8.104141796293431E-005 
 8.206079351156540E-005  8.309299122613664E-005  8.413817238964097E-005  8.519650031376163E-005 
 8.626814036438986E-005  8.735325998746400E-005  8.845202873513276E-005  8.956461829224845E-005 
 9.069120250319293E-005  9.183195739904114E-005  9.298706122506658E-005  9.415669446859211E-005 
 9.534103988719163E-005  9.654028253724637E-005  9.775460980286020E-005  9.898421142513913E-005 
 1.002292795318382E-004  1.014900086673821E-004  1.027665958232634E-004  1.040592404688222E-004 
 1.053681445824145E-004  1.066935126829709E-004  1.080355518619538E-004  1.093944718157151E-004 
 1.107704848782623E-004  1.121638060544361E-004  1.135746530535049E-004  1.150032463231828E-004 
 1.164498090840746E-004  1.179145673645547E-004  1.193977500360847E-004  1.208995888489744E-004 
 1.224203184685938E-004  1.239601765120401E-004  1.255194035852652E-004  1.270982433206718E-004 
 1.286969424151806E-004  1.303157506687778E-004  1.319549210235465E-004  1.336147096031893E-004 
 1.352953757530489E-004  1.369971820806306E-004  1.387203944966353E-004  1.404652822565089E-004 
 1.422321180025139E-004  1.440211778063303E-004  1.458327412121923E-004  1.476670912805678E-004 
 1.495245146323869E-004  1.514053014938271E-004  1.533097457416624E-004  1.552381449491809E-004 
 1.571908004326822E-004  1.591680172985582E-004  1.611701044909669E-004  1.631973748401055E-004 
 1.652501451110906E-004  1.673287360534532E-004  1.694334724512572E-004  1.715646831738467E-004 
 1.737227012272332E-004  1.759078638061281E-004  1.781205123466300E-004  1.803609925795751E-004 
 1.826296545845579E-004  1.849268528446326E-004  1.872529463017008E-004  1.896082984125978E-004 
 1.919932772058829E-004  1.944082553393445E-004  1.968536101582298E-004  1.993297237542040E-004 
 2.018369830250544E-004  2.043757797351429E-004  2.069465105766206E-004  2.095495772314120E-004 
 2.121853864339778E-004  2.148543500348684E-004  2.175568850650766E-004  2.202934138011988E-004 
 2.230643638314181E-004  2.258701681223141E-004  2.287112650865156E-004  2.315880986512036E-004 
 2.345011183274752E-004  2.374507792805820E-004  2.404375424010487E-004  2.434618743766896E-004 
 2.465242477655288E-004  2.496251410696387E-004  2.527650388099072E-004  2.559444316017442E-004 
 2.591638162317420E-004  2.624236957352989E-004  2.657245794752194E-004  2.690669832213039E-004 
 2.724514292309378E-004  2.758784463306958E-004  2.793485699989720E-004  2.828623424496494E-004 
 2.864203127168227E-004  2.900230367405846E-004  2.936710774538937E-004  2.973650048705335E-004 
 3.011053961741777E-004  3.048928358085782E-004  3.087279155688830E-004  3.126112346941074E-004 
 3.165433999607652E-004  3.205250257776790E-004  3.245567342819842E-004  3.286391554363368E-004 
 3.327729271273478E-004  3.369586952652543E-004  3.411971138848434E-004  3.454888452476483E-004 
 3.498345599454256E-004  3.542349370049384E-004  3.586906639940547E-004  3.632024371291817E-004 
 3.677709613840514E-004  3.723969505998733E-004  3.770811275968739E-004  3.818242242872390E-004 
 3.866269817894761E-004  3.914901505442168E-004  3.964144904314729E-004  4.014007708893706E-004 
 4.064497710343759E-004  4.115622797830334E-004  4.167390959752374E-004  4.219810284990498E-004 
 4.272888964170922E-004  4.326635290945258E-004  4.381057663286408E-004  4.436164584800783E-004 
 4.491964666056978E-004  4.548466625931218E-004  4.605679292969688E-004  4.663611606768007E-004 
 4.722272619368084E-004  4.781671496672466E-004  4.841817519876595E-004  4.902720086918958E-004 
 4.964388713949558E-004  5.026833036816850E-004  5.090062812573308E-004  5.154087921000047E-004 
 5.218918366150516E-004  5.284564277913663E-004  5.351035913596774E-004  5.418343659528141E-004 
 5.486498032680020E-004  5.555509682311873E-004  5.625389391634354E-004  5.696148079494232E-004 
 5.767796802080423E-004  5.840346754651619E-004  5.913809273285505E-004  5.988195836650077E-004 
 6.063518067797216E-004  6.139787735978760E-004  6.217016758485551E-004  6.295217202509474E-004 
 6.374401287029003E-004  6.454581384718462E-004  6.535770023881218E-004  6.617979890407341E-004 
 6.701223829755724E-004  6.785514848961246E-004  6.870866118667166E-004  6.957290975183003E-004 
 7.044802922568437E-004  7.133415634743285E-004  7.223142957624101E-004  7.313998911287658E-004 
 7.405997692161538E-004  7.499153675242443E-004  7.593481416342251E-004  7.688995654362414E-004 
 7.785711313596968E-004  7.883643506064412E-004  7.982807533869082E-004  8.083218891592066E-004 
 8.184893268712290E-004  8.287846552058061E-004  8.392094828289332E-004  8.497654386411379E-004 
 8.604541720319915E-004  8.712773531378320E-004  8.822366731027294E-004  8.933338443427219E-004 
 9.045706008133956E-004  9.159486982808096E-004  9.274699145958413E-004  9.391360499719823E-004 
 9.509489272666171E-004  9.629103922658586E-004  9.750223139729481E-004  9.872865849002933E-004 
 9.997051213651812E-004  1.012279863789196E-003  1.025012777001429E-003  1.037905850545473E-003 
 1.050961098990299E-003  1.064180562245041E-003  1.077566305877725E-003  1.091120421438028E-003 
 1.104845026784084E-003  1.118742266413397E-003  1.132814311797939E-003  1.147063361723426E-003 
 1.161491642632901E-003  1.176101408974611E-003  1.190894943554269E-003  1.205874557891754E-003 
 1.221042592582278E-003  1.236401417662126E-003  1.251953432978961E-003  1.267701068566817E-003 
 1.283646785025795E-003  1.299793073906533E-003  1.316142458099519E-003  1.332697492229295E-003 
 1.349460763053626E-003  1.366434889867684E-003  1.383622524913316E-003  1.401026353793469E-003 
 1.418649095891812E-003  1.436493504797651E-003  1.454562368736185E-003  1.472858511004163E-003 
 1.491384790411040E-003  1.510144101725665E-003  1.529139376128595E-003  1.548373581670105E-003 
 1.567849723733940E-003  1.587570845506925E-003  1.607540028454458E-003  1.627760392802002E-003 
 1.648235098022627E-003  1.668967343330677E-003  1.689960368181663E-003  1.711217452778429E-003 
 1.732741918583690E-003  1.754537128839021E-003  1.776606489090366E-003  1.798953447720166E-003 
 1.821581496486171E-003  1.844494171067038E-003  1.867695051614788E-003  1.891187763314207E-003 
 1.914975976949296E-003  1.939063409476832E-003  1.963453824607153E-003  1.988151033392247E-003 
 2.013158894821233E-003  2.038481316423340E-003  2.064122254878459E-003  2.090085716635393E-003 
 2.116375758537863E-003  2.142996488458405E-003  2.169952065940229E-003  2.197246702847158E-003 
 2.224884664021739E-003  2.252870267951637E-003  2.281207887444402E-003  2.309901950310735E-003 
 2.338956940056336E-003  2.368377396582464E-003  2.398167916895311E-003  2.428333155824282E-003 
 2.458877826749334E-003  2.489806702337441E-003  2.521124615288339E-003  2.552836459089644E-003 
 2.584947188781467E-003  2.617461821730655E-003  2.650385438414754E-003  2.683723183215857E-003 
 2.717480265224415E-003  2.751661959053170E-003  2.786273605661328E-003  2.821320613189088E-003 
 2.856808457802679E-003  2.892742684550025E-003  2.929128908227161E-003  2.965972814255568E-003 
 3.003280159570521E-003  3.041056773520627E-003  3.079308558778675E-003  3.118041492263932E-003 
 3.157261626076062E-003  3.196975088440765E-003  3.237188084667332E-003  3.277906898118239E-003 
 3.319137891190929E-003  3.360887506311958E-003  3.403162266943628E-003  3.445968778603294E-003 
 3.489313729895492E-003  3.533203893557053E-003  3.577646127515342E-003  3.622647375959833E-003 
 3.668214670427150E-003  3.714355130899760E-003  3.761075966918490E-003  3.808384478709020E-003 
 3.856288058322566E-003  3.904794190790904E-003  3.953910455295914E-003  4.003644526353863E-003 
 4.054004175014531E-003  4.104997270075483E-003  4.156631779311564E-003  4.208915770719892E-003 
 4.261857413780505E-003  4.315464980732837E-003  4.369746847868291E-003  4.424711496839043E-003 
 4.480367515983317E-003  4.536723601667346E-003  4.593788559644172E-003  4.651571306429578E-003 
 4.710080870695309E-003  4.769326394679815E-003  4.829317135616764E-003  4.890062467181476E-003 
 4.951571880955593E-003  5.013854987910162E-003  5.076921519907355E-003  5.140781331221114E-003 
 5.205444400076878E-003  5.270920830210713E-003  5.337220852448039E-003  5.404354826302216E-003 
 5.472333241593253E-003  5.541166720086838E-003  5.610866017154026E-003  5.681442023451792E-003 
 5.752905766624699E-003  5.825268413028026E-003  5.898541269472488E-003  5.972735784990981E-003 
 6.047863552627503E-003  6.123936311248593E-003  6.200965947377566E-003  6.278964497051779E-003 
 6.357944147703310E-003  6.437917240063258E-003  6.518896270090003E-003  6.600893890921753E-003 
 6.683922914853583E-003  6.767996315339406E-003  6.853127229019096E-003  6.939328957771110E-003 
 7.026614970790956E-003  7.114998906695747E-003  7.204494575655288E-003  7.295115961549932E-003 
 7.386877224155598E-003  7.479792701356249E-003  7.573876911384251E-003  7.669144555088828E-003 
 7.765610518233134E-003  7.863289873820171E-003  7.962197884447974E-003  8.062350004694446E-003 
 8.163761883532130E-003  8.266449366773419E-003  8.370428499546488E-003  8.475715528802373E-003 
 8.582326905853616E-003  8.690279288944780E-003  8.799589545855352E-003  8.910274756535367E-003 
 9.022352215774181E-003  9.135839435902831E-003  9.250754149530353E-003  9.367114312314545E-003 
 9.484938105767579E-003  9.604243940096884E-003  9.725050457081828E-003  9.847376532986457E-003 
 9.971241281509008E-003  1.009666405676845E-002  1.022366445632856E-002  1.035226232426020E-002 
 1.048247775424184E-002  1.061433109269936E-002  1.074784294198513E-002  1.088303416359723E-002 
 1.101992588143910E-002  1.115853948512017E-002  1.129889663329801E-002  1.144101925706259E-002 
 1.158492956336301E-002  1.173065003847743E-002  1.187820345152657E-002  1.202761285803139E-002 
 1.217890160351565E-002  1.233209332715362E-002  1.248721196546380E-002  1.264428175604902E-002 
 1.280332724138361E-002  1.296437327264824E-002  1.312744501361294E-002  1.329256794456901E-002 
 1.345976786631036E-002  1.362907090416494E-002  1.380050351207685E-002  1.397409247673985E-002 
 1.414986492178287E-002  1.432784831200804E-002  1.450807045768220E-002  1.469055951888227E-002 
 1.487534400989532E-002  1.506245280367406E-002  1.525191513634817E-002  1.544376061179259E-002 
 1.563801920625319E-002  1.583472127303054E-002  1.603389754722281E-002  1.623557915052805E-002 
 1.643979759610711E-002  1.664658479350758E-002  1.685597305364976E-002  1.706799509387534E-002 
 1.728268404305944E-002  1.750007344678716E-002  1.772019727259512E-002  1.794308991527892E-002 
 1.816878620226751E-002  1.839732139906488E-002  1.862873121476050E-002  1.886305180760887E-002 
 1.910031979067934E-002  1.934057223757702E-002  1.958384668823553E-002  1.983018115478271E-002 
 2.007961412748015E-002  2.033218458073728E-002  2.058793197920133E-002  2.084689628392359E-002 
 2.110911795860356E-002  2.137463797591139E-002  2.164349782388998E-002  2.191573951243761E-002 
 2.219140557987198E-002  2.247053909957697E-002  2.275318368673293E-002  2.303938350513163E-002 
 2.332918327407703E-002  2.362262827537259E-002  2.391976436039678E-002  2.422063795726743E-002 
 2.452529607809616E-002  2.483378632633420E-002  2.514615690421047E-002  2.546245662026327E-002 
 2.578273489696677E-002  2.610704177845326E-002  2.643542793833286E-002  2.676794468761112E-002 
 2.710464398270662E-002  2.744557843356925E-002  2.779080131190056E-002  2.814036655947770E-002 
 2.849432879658179E-002  2.885274333053250E-002  2.921566616432997E-002  2.958315400540533E-002 
 2.995526427448144E-002  3.033205511454491E-002  3.071358539993107E-002  3.109991474552325E-002 
 3.149110351606765E-002  3.188721283560561E-002  3.228830459702418E-002  3.269444147172709E-002 
 3.310568691942732E-002  3.352210519806273E-002  3.394376137383662E-002  3.437072133138429E-002 
 3.480305178406776E-002  3.524082028439985E-002  3.568409523459935E-002  3.613294589727915E-002 
 3.658744240626844E-002  3.704765577757144E-002  3.751365792046375E-002  3.798552164872820E-002 
 3.846332069203245E-002  3.894712970744907E-002  3.943702429112103E-002  3.993308099007372E-002 
 4.043537731417556E-002  4.094399174824919E-002  4.145900376433469E-002  4.198049383410736E-002 
 4.250854344145159E-002  4.304323509519280E-002  4.358465234198983E-002  4.413287977938895E-002 
 4.468800306904264E-002  4.525010895009432E-002  4.581928525273148E-002  4.639562091190948E-002 
 4.697920598124758E-002  4.757013164710019E-002  4.816849024280485E-002  4.877437526310945E-002 
 4.938788137878120E-002  5.000910445139881E-002  5.063814154833126E-002  5.127509095790474E-002 
 5.192005220476033E-002  5.257312606540512E-002  5.323441458395849E-002  5.390402108809686E-002 
 5.458205020519883E-002  5.526860787869336E-002  5.596380138461383E-002  5.666773934835990E-002 
 5.738053176167055E-002  5.810228999981057E-002  5.883312683897303E-002  5.957315647390105E-002 
 6.032249453573066E-002  6.108125811005854E-002  6.184956575523690E-002  6.262753752089839E-002 
 6.341529496671428E-002  6.421296118138814E-002  6.502066080188888E-002  6.583852003292548E-002 
 6.666666666666667E-002  6.750523010270898E-002  6.835434136829528E-002  6.921413313878837E-002 
 7.008473975840165E-002  7.096629726119062E-002  7.185894339230878E-002  7.276281762953013E-002 
 7.367806120504321E-002  7.460481712751875E-002  7.554323020445509E-002  7.649344706480483E-002 
 7.745561618188557E-002  7.842988789657941E-002  7.941641444082394E-002  8.041534996139871E-002 
 8.142685054401134E-002  8.245107423768568E-002  8.348818107945767E-002  8.453833311938136E-002 
 8.560169444584943E-002  8.667843121123275E-002  8.776871165784146E-002  8.887270614421357E-002 
 8.999058717173361E-002  9.112252941158643E-002  9.226870973205011E-002  9.342930722613159E-002 
 9.460450323955054E-002  9.579448139907502E-002  9.699942764121341E-002  9.821953024126771E-002 
 9.945497984275138E-002  1.007059694871782E-001  1.019726946442253E-001  1.032553532422755E-001 
 1.045541456993446E-001  1.058692749543963E-001  1.072009464990522E-001  1.085493684097007E-001 
 1.099147513800085E-001  1.112973087538429E-001  1.126972565586061E-001  1.141148135389910E-001 
 1.155502011911598E-001  1.170036437973532E-001  1.184753684609359E-001  1.199656051418806E-001 
 1.214745866927007E-001  1.230025488948334E-001  1.245497304954815E-001  1.261163732449180E-001 
 1.277027219342598E-001  1.293090244337170E-001  1.309355317313232E-001  1.325824979721528E-001 
 1.342501804980318E-001  1.359388398877477E-001  1.376487399977658E-001  1.393801480034571E-001 
 1.411333344408450E-001  1.429085732488773E-001  1.447061418122295E-001  1.465263210046469E-001 
 1.483693952328313E-001  1.502356524808806E-001  1.521253843552869E-001  1.540388861305003E-001 
 1.559764567950661E-001  1.579383990983428E-001  1.599250195978065E-001  1.619366287069526E-001 
 1.639735407437967E-001  1.660360739799888E-001  1.681245506905433E-001  1.702392972041951E-001 
 1.723806439543898E-001  1.745489255309134E-001  1.767444807321739E-001  1.789676526181382E-001 
 1.812187885639363E-001  1.834982403141405E-001  1.858063640377234E-001  1.881435203837133E-001 
 1.905100745375444E-001  1.929063962781174E-001  1.953328600355803E-001  1.977898449498312E-001 
 2.002777349297621E-001  2.027969187132444E-001  2.053477899278687E-001  2.079307471524530E-001 
 2.105461939793179E-001  2.131945390773516E-001  2.158761962558642E-001  2.185915845292449E-001 
 2.213411281824368E-001  2.241252568372287E-001  2.269444055193879E-001  2.297990147266318E-001 
 2.326895304974561E-001  2.356164044808316E-001  2.385800940067720E-001  2.415810621577960E-001 
 2.446197778412831E-001  2.476967158627403E-001  2.508123569999943E-001  2.539671880783108E-001 
 2.571617020464649E-001  2.603963980537636E-001  2.636717815280385E-001  2.669883642546219E-001 
 2.703466644563118E-001  2.737472068743474E-001  2.771905228504007E-001  2.806771504095973E-001 
 2.842076343445881E-001  2.877825263006696E-001  2.914023848619838E-001  2.950677756387959E-001 
 2.987792713558710E-001  3.025374519419672E-001  3.063429046204460E-001  3.101962240010313E-001 
 3.140980121727163E-001  3.180488787978402E-001  3.220494412073522E-001  3.261003244972671E-001 
 3.302021616263409E-001  3.343555935149709E-001  3.385612691453387E-001  3.428198456628194E-001 
 3.471319884786567E-001  3.514983713739393E-001  3.559196766048787E-001  3.603965950094111E-001 
 3.649298261151470E-001  3.695200782486683E-001  3.741680686462103E-001  3.788745235657299E-001 
 3.836401784003821E-001  3.884657777934320E-001  3.933520757546012E-001  3.982998357778881E-001 
 4.033098309608633E-001  4.083828441254658E-001  4.135196679403247E-001  4.187211050446111E-001 
 4.239879681734553E-001  4.293210802849376E-001  4.347212746886742E-001  4.401893951760290E-001 
 4.457262961519515E-001  4.513328427684849E-001  4.570099110599455E-001  4.627583880798024E-001 
 4.685791720392867E-001  4.744731724477331E-001  4.804413102546977E-001  4.864845179938558E-001 
 4.926037399287100E-001  4.987999322001391E-001  5.050740629757899E-001  5.114271126013619E-001 
 5.178600737537852E-001  5.243739515963262E-001  5.309697639356520E-001  5.376485413808584E-001 
 5.444113275045097E-001  5.512591790056983E-001  5.581931658751510E-001  5.652143715624255E-001 
 5.723238931451931E-001  5.795228415006668E-001  5.868123414791742E-001  5.941935320799158E-001 
 6.016675666289421E-001  6.092356129593551E-001  6.168988535937926E-001  6.246584859291957E-001 
 6.325157224239017E-001  6.404717907871008E-001  6.485279341706591E-001  6.566854113633720E-001 
 6.649454969876485E-001  6.733094816986702E-001  6.817786723860674E-001  6.903543923781130E-001 
 6.990379816485047E-001  7.078307970257340E-001  7.167342124050903E-001  7.257496189633432E-001 
 7.348784253761070E-001  7.441220580379576E-001  7.534819612853060E-001  7.629595976220748E-001 
 7.725564479482269E-001  7.822740117911475E-001  7.921138075399596E-001  8.020773726827692E-001 
 8.121662640468982E-001  8.223820580421511E-001  8.327263509071209E-001  8.432007589586148E-001 
 8.538069188442028E-001  8.645464877979422E-001  8.754211438993352E-001  8.864325863355192E-001 
 8.975825356667806E-001  9.088727340953843E-001  9.203049457378063E-001  9.318809569003765E-001 
 9.436025763583872E-001  9.554716356387299E-001  9.674899893060617E-001  9.796595152525961E-001 
 9.919821149915233E-001  1.004459713954119E+000  1.017094261790612E+000  1.029887732674802E+000 
 1.042842125612545E+000  1.055959464754096E+000  1.069241799710378E+000  1.082691205873257E+000 
 1.096309784739804E+000  1.110099664240676E+000  1.124062999072603E+000  1.138201971035057E+000 
 1.152518789371178E+000  1.167015691112953E+000  1.181694941430776E+000  1.196558833987377E+000 
 1.211609691296204E+000  1.226849865084338E+000  1.242281736659934E+000  1.257907717284326E+000 
 1.273730248548778E+000  1.289751802755988E+000  1.305974883306401E+000  1.322402025089356E+000 
 1.339035794879178E+000  1.355878791736242E+000  1.372933647413069E+000  1.390203026765562E+000 
 1.407689628169375E+000  1.425396183941556E+000  1.443325460767472E+000  1.461480260133098E+000 
 1.479863418762778E+000  1.498477809062442E+000  1.517326339568449E+000  1.536411955402040E+000 
 1.555737638729515E+000  1.575306409228217E+000  1.595121324558343E+000  1.615185480840732E+000 
 1.635502013140625E+000  1.656074095957523E+000  1.676904943721226E+000  1.697997811294073E+000 
 1.719355994479538E+000  1.740982830537199E+000  1.762881698704187E+000  1.785056020723210E+000 
 1.807509261377194E+000  1.830244929030673E+000  1.853266576177979E+000  1.876577799998310E+000 
 1.900182242917821E+000  1.924083593178736E+000  1.948285585415663E+000  1.972792001239132E+000 
 1.997606669826468E+000  2.022733468520131E+000  2.048176323433529E+000  2.073939210064511E+000 
 2.100026153916531E+000  2.126441231127633E+000  2.153188569107381E+000  2.180272347181745E+000 
 2.207696797246154E+000  2.235466204426731E+000  2.263584907749837E+000  2.292057300820082E+000 
 2.320887832506803E+000  2.350081007639236E+000  2.379641387710394E+000  2.409573591589796E+000 
 2.439882296245202E+000  2.470572237473373E+000  2.501648210640067E+000  2.533115071429320E+000 
 2.564977736602143E+000  2.597241184764802E+000  2.629910457146704E+000  2.662990658388129E+000 
 2.696486957337829E+000  2.730404587860654E+000  2.764748849655388E+000  2.799525109082801E+000 
 2.834738800004186E+000  2.870395424630397E+000  2.906500554381567E+000  2.943059830757686E+000 
 2.980078966220057E+000  3.017563745083918E+000  3.055520024422234E+000  3.093953734980865E+000 
 3.132870882105290E+000  3.172277546678913E+000  3.212179886073254E+000  3.252584135110031E+000 
 3.293496607035346E+000  3.334923694506188E+000  3.376871870589244E+000  3.419347689772380E+000 
 3.462357788988766E+000  3.505908888653897E+000  3.550007793715713E+000  3.594661394717838E+000 
 3.639876668876282E+000  3.685660681169632E+000  3.732020585442944E+000  3.778963625525591E+000 
 3.826497136363082E+000  3.874628545163199E+000  3.923365372556497E+000  3.972715233771399E+000 
 4.022685839824137E+000  4.073284998723558E+000  4.124520616691192E+000  4.176400699396594E+000 
 4.228933353208223E+000  4.282126786460130E+000  4.335989310734467E+000  4.390529342160247E+000 
 4.445755402728348E+000  4.501676121623077E+000  4.558300236570548E+000  4.615636595203910E+000 
 4.673694156445857E+000  4.732481991908462E+000  4.792009287310605E+000  4.852285343913317E+000 
 4.913319579973057E+000  4.975121532213394E+000  5.037700857315112E+000  5.101067333425060E+000 
 5.165230861684065E+000  5.230201467773943E+000  5.295989303484089E+000  5.362604648297688E+000 
 5.430057910997876E+000  5.498359631294208E+000  5.567520481469418E+000  5.637551268047067E+000 
 5.708462933480044E+000  5.780266557860327E+000  5.852973360650328E+000  5.926594702435889E+000 
 6.001142086701454E+000  6.076627161627496E+000  6.153061721910526E+000  6.230457710606117E+000 
 6.308827220994943E+000  6.388182498472458E+000  6.468535942462229E+000  6.549900108353338E+000 
 6.632287709462263E+000  6.715711619019275E+000  6.800184872179980E+000  6.885720668062057E+000 
 6.972332371807615E+000  7.060033516671601E+000  7.148837806136304E+000  7.238759116052639E+000 
 7.329811496808241E+000  7.422009175522823E+000  7.515366558271288E+000  7.609898232334602E+000 
 7.705618968479177E+000  7.802543723264794E+000  7.900687641381555E+000  8.000066058016371E+000 
 8.100694501248999E+000  8.202588694478436E+000  8.305764558879696E+000  8.410238215891479E+000 
 8.516025989735269E+000  8.623144409965931E+000  8.731610214054573E+000  8.841440350003777E+000 
 8.952651978995702E+000  9.065262478073674E+000  9.179289442857248E+000  9.294750690291677E+000 
 9.411664261431801E+000  9.530048424260935E+000  9.649921676545409E+000  9.771302748724745E+000 
 9.894210606838440E+000  1.001866445548940E+001  1.014468374084464E+001  1.027228815367393E+001 
 1.040149763242634E+001  1.053233236634583E+001  1.066481279862578E+001  1.079895962960322E+001 
 1.093479381999347E+001  1.107233659416507E+001  1.121160944345636E+001  1.135263412953341E+001 
 1.149543268779029E+001  1.164002743079230E+001  1.178644095176216E+001  1.193469612811044E+001 
 1.208481612501009E+001  1.223682439901600E+001  1.239074470173029E+001  1.254660108351337E+001 
 1.270441789724200E+001  1.286421980211444E+001  1.302603176750340E+001  1.318987907685772E+001 
 1.335578733165279E+001  1.352378245539099E+001  1.369389069765222E+001  1.386613863819538E+001 
 1.404055319111165E+001  1.421716160902974E+001  1.439599148737427E+001  1.457707076867761E+001 
 1.476042774694581E+001  1.494609107207982E+001  1.513408975435187E+001  1.532445316893859E+001 
 1.551721106051082E+001  1.571239354788124E+001  1.591003112871066E+001  1.611015468427312E+001 
 1.631279548428136E+001  1.651798519177269E+001  1.672575586805631E+001  1.693613997772315E+001 
 1.714917039371833E+001  1.736488040247779E+001  1.758330370912928E+001  1.780447444275881E+001 
 1.802842716174353E+001  1.825519685915137E+001  1.848481896820893E+001  1.871732936783797E+001 
 1.895276438826140E+001  1.919116081668022E+001  1.943255590302135E+001  1.967698736575815E+001 
 1.992449339780404E+001  2.017511267247999E+001  2.042888434955764E+001  2.068584808137776E+001 
 2.094604401904628E+001  2.120951281870787E+001  2.147629564789844E+001  2.174643419197789E+001 
 2.201997066064326E+001  2.229694779452434E+001  2.257740887186184E+001  2.286139771526963E+001 
 2.314895869858234E+001  2.344013675378859E+001  2.373497737805194E+001  2.403352664081985E+001 
 2.433583119102193E+001  2.464193826435928E+001  2.495189569068481E+001  2.526575190147704E+001 
 2.558355593740748E+001  2.590535745600325E+001  2.623120673940643E+001  2.656115470223040E+001 
 2.689525289951568E+001  2.723355353478537E+001  2.757610946820192E+001  2.792297422482695E+001 
 2.827420200298430E+001  2.862984768272893E+001  2.898996683442191E+001  2.935461572741326E+001 
 2.972385133883450E+001  3.009773136250103E+001  3.047631421792726E+001  3.085965905945464E+001 
 3.124782578549447E+001  3.164087504788753E+001  3.203886826138062E+001  3.244186761322315E+001 
 3.284993607288379E+001  3.326313740188947E+001  3.368153616378864E+001  3.410519773423895E+001 
 3.453418831122280E+001  3.496857492539070E+001  3.540842545053474E+001  3.585380861419449E+001 
 3.630479400839530E+001  3.676145210052258E+001  3.722385424433240E+001  3.769207269110034E+001 
 3.816618060091146E+001  3.864625205409109E+001  3.913236206278059E+001  3.962458658265788E+001 
 4.012300252480548E+001  4.062768776772854E+001  4.113872116952291E+001  4.165618258019740E+001 
 4.218015285415027E+001  4.271071386280273E+001  4.324794850739193E+001  4.379194073192399E+001 
 4.434277553629079E+001  4.490053898955129E+001  4.546531824337970E+001  4.603720154568362E+001 
 4.661627825439238E+001  4.720263885141996E+001  4.779637495680266E+001  4.839757934301475E+001 
 4.900634594946493E+001  4.962276989717380E+001  5.024694750363742E+001  5.087897629787678E+001 
 5.151895503567666E+001  5.216698371501710E+001  5.282316359169747E+001  5.348759719515860E+001 
 5.416038834450293E+001  5.484164216471616E+001  5.553146510309391E+001  5.622996494587357E+001 
 5.693725083507677E+001  5.765343328556278E+001  5.837862420229639E+001  5.911293689783395E+001 
 5.985648611002789E+001  6.060938801995549E+001  6.137176027007207E+001  6.214372198259255E+001 
 6.292539377810532E+001  6.371689779441851E+001  6.451835770564510E+001  6.532989874152695E+001 
 6.615164770700174E+001  6.698373300201746E+001  6.782628464159409E+001  6.867943427613959E+001 
 6.954331521202026E+001  7.041806243238968E+001  7.130381261828094E+001  7.220070416996241E+001 