<UPF version="2.0.1">
  <PP_INFO>
    Generated using "atomic" code by A. Dal Corso  v.5.1.2
    Author: ADC
    Generation date: 30Jul2016
    Pseudopotential type: PAW
    Element: Pa
    Functional:  SLA  PW   PBX  PBC

    Suggested minimum cutoff for wavefunctions:  91. Ry
    Suggested minimum cutoff for charge density: 446. Ry
    The Pseudo was generated with a Scalar-Relativistic Calculation
    Local Potential by smoothing AE potential with Bessel fncs, cutoff radius:   2.1000
    Pseudopotential contains additional information for GIPAW reconstruction.

    Valence configuration: 
    nl pn  l   occ       Rcut    Rcut US       E pseu
    6S  1  0  2.00      1.300      1.500    -3.452782
    7S  2  0  2.00      1.300      1.500    -0.319006
    6P  2  1  6.00      1.400      2.200    -1.718099
    6D  3  2  1.50      1.900      2.200    -0.200950
    5F  4  3  1.50      1.100      1.300    -0.271077
    Generation configuration:
    6S  1  0  2.00      1.300      1.500    -3.452938
    7S  2  0  2.00      1.300      1.500    -0.319004
    6P  2  1  6.00      1.400      2.200    -1.718212
    7P  3  1  0.00      1.400      2.200     5.000000
    6D  3  2  1.50      1.900      2.200    -0.201009
    6D  3  2  0.00      1.900      2.200     4.800000
    5F  4  3  1.50      1.100      1.300    -0.271184
    5F  4  3  0.00      1.100      1.300    -0.500000

    Pseudization used: troullier-martins
<PP_INPUTFILE>
 &input
   title='Pa',
   zed=91.0,
   rel=1,
   config='[Rn] 6d1.5 7s2.0 7p0. 5f1.5',
   iswitch=3,
   dft='PBE'
 /
 &inputp
   lpaw=.true.,
   pseudotype=3,
   file_pseudopw='Pa.pbe-spfn-kjpaw_psl.1.0.0.UPF',
   author='ADC',
   lloc=-1,
   rcloc=2.1,
   which_augfun='PSQ',
   rmatch_augfun_nc=.true.,
   nlcc=.true.,
   new_core_ps=.true.,
   rcore=1.5,
   tm=.true.
 /
8
6S  1  0  2.00  0.00  1.30  1.50  0.0
7S  2  0  2.00  0.00  1.30  1.50  0.0
6P  2  1  6.00  0.00  1.40  2.20  0.0
7P  3  1  0.00  5.00  1.40  2.20  0.0
6D  3  2  1.50  0.00  1.90  2.20  0.0
6D  3  2  0.00  4.80  1.90  2.20  0.0
5F  4  3  1.50  0.00  1.10  1.30  0.0
5F  4  3  0.00 -0.50  1.10  1.30  0.0
</PP_INPUTFILE>
  </PP_INFO>
  <!--                               -->
  <!-- END OF HUMAN READABLE SECTION -->
  <!--                               -->
  <PP_HEADER generated='Generated using "atomic" code by A. Dal Corso  v.5.1.2'
             author="ADC"
             date="30Jul2016"
             comment=""
             element="Pa"
             pseudo_type="PAW"
             relativistic="scalar"
             is_ultrasoft="T"
             is_paw="T"
             is_coulomb="F"
             has_so="F"
             has_wfc="T"
             has_gipaw="T"
             paw_as_gipaw="T"
             core_correction="T"
             functional=" SLA  PW   PBX  PBC"
             z_valence="1.300000000000000E+001"
             total_psenergy="-9.956553409173156E+002"
             wfc_cutoff="9.093366092887651E+001"
             rho_cutoff="4.455503601131963E+002"
             l_max="3"
             l_max_rho="6"
             l_local="-1"
             mesh_size="1291"
             number_of_wfc="5"
             number_of_proj="8"/>
  <PP_MESH dx="1.250000000000000E-002" mesh="1291" xmin="-7.000000000000000E+000" rmax="1.000000000000000E+002"
zmesh="9.100000000000000E+001">
    <PP_R type="real" size="1291" columns="4">
 1.002068094015952E-005  1.014672558976948E-005  1.027435568589651E-005  1.040359117100279E-005 
 1.053445223839582E-005  1.066695933538361E-005  1.080113316646966E-005  1.093699469658804E-005 
 1.107456515437924E-005  1.121386603550719E-005  1.135491910601799E-005  1.149774640574086E-005 
 1.164237025173198E-005  1.178881324176150E-005  1.193709825784459E-005  1.208724846981668E-005 
 1.223928733895388E-005  1.239323862163882E-005  1.254912637307261E-005  1.270697495103360E-005 
 1.286680901968324E-005  1.302865355341992E-005  1.319253384078133E-005  1.335847548839577E-005 
 1.352650442498331E-005  1.369664690540714E-005  1.386892951477598E-005  1.404337917259807E-005 
 1.422002313698734E-005  1.439888900892264E-005  1.458000473656035E-005  1.476339861960139E-005 
 1.494909931371312E-005  1.513713583500678E-005  1.532753756457142E-005  1.552033425306463E-005 
 1.571555602536126E-005  1.591323338526039E-005  1.611339722025168E-005  1.631607880634161E-005 
 1.652130981294035E-005  1.672912230781024E-005  1.693954876207638E-005  1.715262205530035E-005 
 1.736837548061777E-005  1.758684274994027E-005  1.780805799922315E-005  1.803205579379919E-005 
 1.825887113377949E-005  1.848853945952243E-005  1.872109665717114E-005  1.895657906426091E-005 
 1.919502347539692E-005  1.943646714800352E-005  1.968094780814582E-005  1.992850365642434E-005 
 2.017917337394403E-005  2.043299612835825E-005  2.069001157998876E-005  2.095025988802282E-005 
 2.121378171678801E-005  2.148061824210623E-005  2.175081115772744E-005  2.202440268184439E-005 
 2.230143556368938E-005  2.258195309021383E-005  2.286599909285197E-005  2.315361795436960E-005 
 2.344485461579899E-005  2.373975458346104E-005  2.403836393607566E-005  2.434072933196172E-005 
 2.464689801632751E-005  2.495691782865282E-005  2.527083721016413E-005  2.558870521140345E-005 
 2.591057149989267E-005  2.623648636789421E-005  2.656650074026927E-005  2.690066618243498E-005 
 2.723903490842152E-005  2.758165978903075E-005  2.792859436009734E-005  2.827989283085385E-005 
 2.863561009240108E-005  2.899580172628485E-005  2.936052401318077E-005  2.972983394168821E-005 
 3.010378921723482E-005  3.048244827109328E-005  3.086587026951113E-005  3.125411512295569E-005 
 3.164724349547520E-005  3.204531681417766E-005  3.244839727882908E-005  3.285654787157209E-005 
 3.326983236676720E-005  3.368831534095762E-005  3.411206218295943E-005  3.454113910407890E-005 
 3.497561314845788E-005  3.541555220354974E-005  3.586102501072690E-005  3.631210117602178E-005 
 3.676885118100299E-005  3.723134639378804E-005  3.769965908019489E-005  3.817386241503355E-005 
 3.865403049353988E-005  3.914023834295308E-005  3.963256193423879E-005  4.013107819395982E-005 
 4.063586501629596E-005  4.114700127521517E-005  4.166456683679789E-005  4.218864257171608E-005 
 4.271931036786956E-005  4.325665314318113E-005  4.380075485855265E-005  4.435170053098416E-005 
 4.490957624685787E-005  4.547446917538942E-005  4.604646758224813E-005  4.662566084334879E-005 
 4.721213945881692E-005  4.780599506712933E-005  4.840732045943304E-005  4.901620959404398E-005 
 4.963275761112820E-005  5.025706084756783E-005  5.088921685201369E-005  5.152932440012759E-005 
 5.217748351001624E-005  5.283379545785918E-005  5.349836279373366E-005  5.417128935763793E-005 
 5.485268029571667E-005  5.554264207669026E-005  5.624128250849067E-005  5.694871075510687E-005 
 5.766503735364159E-005  5.839037423158324E-005  5.912483472429473E-005  5.986853359272225E-005 
 6.062158704132716E-005  6.138411273624285E-005  6.215622982366053E-005  6.293805894844599E-005 
 6.372972227299056E-005  6.453134349629947E-005  6.534304787331972E-005  6.616496223451163E-005 
 6.699721500566636E-005  6.783993622797253E-005  6.869325757833583E-005  6.955731238995326E-005 
 7.043223567314707E-005  7.131816413646029E-005  7.221523620801772E-005  7.312359205715575E-005 
 7.404337361632381E-005  7.497472460326184E-005  7.591779054345639E-005  7.687271879287924E-005 
 7.783965856101236E-005  7.881876093416152E-005  7.981017889906475E-005  8.081406736679600E-005 
 8.183058319697074E-005  8.285988522225578E-005  8.390213427318640E-005  8.495749320329748E-005 
 8.602612691456893E-005  8.710820238319224E-005  8.820388868566111E-005  8.931335702518913E-005 
 9.043678075846187E-005  9.157433542272318E-005  9.272619876320363E-005  9.389255076089392E-005 
 9.507357366066631E-005  9.626945199975195E-005  9.748037263657426E-005  9.870652477994633E-005 
 9.994810001863544E-005  1.012052923512982E-004  1.024782982167948E-004  1.037673165248814E-004 
 1.050725486872913E-004  1.063941986492054E-004  1.077324729211190E-004  1.090875806111100E-004 
 1.104597334575119E-004  1.118491458619986E-004  1.132560349230851E-004  1.146806204700495E-004 
 1.161231250972819E-004  1.175837741990651E-004  1.190627960047929E-004  1.205604216146317E-004 
 1.220768850356297E-004  1.236124232182820E-004  1.251672760935536E-004  1.267416866103695E-004 
 1.283359007735764E-004  1.299501676823804E-004  1.315847395692706E-004  1.332398718394297E-004 
 1.349158231106422E-004  1.366128552537043E-004  1.383312334333406E-004  1.400712261496381E-004 
 1.418331052799986E-004  1.436171461216207E-004  1.454236274345158E-004  1.472528314850640E-004 
 1.491050440901202E-004  1.509805546616719E-004  1.528796562520618E-004  1.548026455997773E-004 
 1.567498231758160E-004  1.587214932306360E-004  1.607179638416947E-004  1.627395469615868E-004 
 1.647865584667881E-004  1.668593182070104E-004  1.689581500551806E-004  1.710833819580449E-004 
 1.732353459874119E-004  1.754143783920398E-004  1.776208196501744E-004  1.798550145227520E-004 
 1.821173121072665E-004  1.844080658923182E-004  1.867276338128471E-004  1.890763783060592E-004 
 1.914546663680606E-004  1.938628696111996E-004  1.963013643221322E-004  1.987705315206188E-004 
 2.012707570190569E-004  2.038024314827680E-004  2.063659504910375E-004  2.089617145989259E-004 
 2.115901293998564E-004  2.142516055889889E-004  2.169465590273932E-004  2.196754108070267E-004 
 2.224385873165318E-004  2.252365203078600E-004  2.280696469637334E-004  2.309384099659564E-004 
 2.338432575645843E-004  2.367846436479645E-004  2.397630278136569E-004  2.427788754402466E-004 
 2.458326577600616E-004  2.489248519328019E-004  2.520559411200981E-004  2.552264145610063E-004 
 2.584367676484517E-004  2.616875020066361E-004  2.649791255694162E-004  2.683121526596707E-004 
 2.716871040696637E-004  2.751045071424192E-004  2.785648958541203E-004  2.820688108975432E-004 
 2.856167997665423E-004  2.892094168415968E-004  2.928472234764339E-004  2.965307880857416E-004 
 3.002606862339843E-004  3.040375007253360E-004  3.078618216947453E-004  3.117342467001440E-004 
 3.156553808158179E-004  3.196258367269503E-004  3.236462348253548E-004  3.277172033064144E-004 
 3.318393782672363E-004  3.360134038060450E-004  3.402399321228230E-004  3.445196236212186E-004 
 3.488531470117357E-004  3.532411794162205E-004  3.576844064736641E-004  3.621835224473337E-004 
 3.667392303332536E-004  3.713522419700501E-004  3.760232781501762E-004  3.807530687325388E-004 
 3.855423527565389E-004  3.903918785575491E-004  3.953024038838425E-004  4.002746960149916E-004 
 4.053095318817584E-004  4.104076981874904E-004  4.155699915310448E-004  4.207972185312600E-004 
 4.260901959529891E-004  4.314497508347233E-004  4.368767206178167E-004  4.423719532773390E-004 
 4.479363074545739E-004  4.535706525911819E-004  4.592758690650540E-004  4.650528483278716E-004 
 4.709024930443977E-004  4.768257172335206E-004  4.828234464110706E-004  4.888966177344343E-004 
 4.950461801489871E-004  5.012730945363671E-004  5.075783338646167E-004  5.139628833402086E-004 
 5.204277405619882E-004  5.269739156770492E-004  5.336024315385711E-004  5.403143238656438E-004 
 5.471106414050983E-004  5.539924460953778E-004  5.609608132324661E-004  5.680168316379056E-004 
 5.751616038289273E-004  5.823962461907231E-004  5.897218891508806E-004  5.971396773560164E-004 
 6.046507698506292E-004  6.122563402582022E-004  6.199575769645862E-004  6.277556833036845E-004 
 6.356518777454779E-004  6.436473940864127E-004  6.517434816421837E-004  6.599414054429445E-004 
 6.682424464309667E-004  6.766479016607938E-004  6.851590845019061E-004  6.937773248439382E-004 
 7.025039693044787E-004  7.113403814394786E-004  7.202879419563117E-004  7.293480489295126E-004 
 7.385221180192281E-004  7.478115826924197E-004  7.572178944468416E-004  7.667425230378425E-004 
 7.763869567080178E-004  7.861527024197497E-004  7.960412860906754E-004  8.060542528321113E-004 
 8.161931671904825E-004  8.264596133917849E-004  8.368551955891245E-004  8.473815381133705E-004 
 8.580402857269578E-004  8.688331038808867E-004  8.797616789749515E-004  8.908277186212443E-004 
 9.020329519109758E-004  9.133791296846435E-004  9.248680248056088E-004  9.365014324371085E-004 
 9.482811703227527E-004  9.602090790705537E-004  9.722870224405199E-004  9.845168876358760E-004 
 9.969005855979401E-004  1.009440051304713E-003  1.022137244073225E-003  1.034994147865678E-003 
 1.048012771599447E-003  1.061195149460977E-003  1.074543341223627E-003  1.088059432569520E-003 
 1.101745535415426E-003  1.115603788242759E-003  1.129636356431719E-003  1.143845432599634E-003 
 1.158233236943564E-003  1.172802017587211E-003  1.187554050932190E-003  1.202491642013725E-003 
 1.217617124860813E-003  1.232932862860920E-003  1.248441249129272E-003  1.264144706882774E-003 
 1.280045689818649E-003  1.296146682497831E-003  1.312450200733183E-003  1.328958791982601E-003 
 1.345675035747054E-003  1.362601543973640E-003  1.379740961463707E-003  1.397095966286105E-003 
 1.414669270195651E-003  1.432463619056832E-003  1.450481793272860E-003  1.468726608220115E-003 
 1.487200914688052E-003  1.505907599324643E-003  1.524849585087421E-003  1.544029831700200E-003 
 1.563451336115535E-003  1.583117132983003E-003  1.603030295123378E-003  1.623193934008757E-003 
 1.643611200248738E-003  1.664285284082711E-003  1.685219415878335E-003  1.706416866636297E-003 
 1.727880948501403E-003  1.749615015280114E-003  1.771622462964581E-003  1.793906730263279E-003 
 1.816471299138314E-003  1.839319695349479E-003  1.862455489005167E-003  1.885882295120207E-003 
 1.909603774180716E-003  1.933623632716061E-003  1.957945623878005E-003  1.982573548027152E-003 
 2.007511253326756E-003  2.032762636344003E-003  2.058331642658869E-003  2.084222267480608E-003 
 2.110438556272024E-003  2.136984605381579E-003  2.163864562683451E-003  2.191082628225661E-003 
 2.218643054886324E-003  2.246550149038177E-003  2.274808271221459E-003  2.303421836825251E-003 
 2.332395316777397E-003  2.361733238243084E-003  2.391440185332231E-003  2.421520799815758E-003 
 2.451979781850877E-003  2.482821890715504E-003  2.514051945551896E-003  2.545674826119658E-003 
 2.577695473558218E-003  2.610118891158880E-003  2.642950145146617E-003  2.676194365471657E-003 
 2.709856746611062E-003  2.743942548380371E-003  2.778457096755455E-003  2.813405784704726E-003 
 2.848794073031776E-003  2.884627491228653E-003  2.920911638339854E-003  2.957652183837185E-003 
 2.994854868505634E-003  3.032525505340365E-003  3.070669980455027E-003  3.109294254001462E-003 
 3.148404361100990E-003  3.188006412787422E-003  3.228106596961900E-003  3.268711179359788E-003 
 3.309826504529695E-003  3.351458996824827E-003  3.393615161406812E-003  3.436301585262131E-003 
 3.479524938231356E-003  3.523291974051328E-003  3.567609531410437E-003  3.612484535017189E-003 
 3.657923996682194E-003  3.703935016413785E-003  3.750524783527406E-003  3.797700577768951E-003 
 3.845469770452258E-003  3.893839825610866E-003  3.942818301164305E-003  3.992412850099028E-003 
 4.042631221664201E-003  4.093481262582561E-003  4.144970918276451E-003  4.197108234109331E-003 
 4.249901356642874E-003  4.303358534909879E-003  4.357488121703219E-003  4.412298574880954E-003 
 4.467798458687905E-003  4.523996445093832E-003  4.580901315148444E-003  4.638521960353467E-003 
 4.696867384051943E-003  4.755946702835028E-003  4.815769147966479E-003  4.876344066825054E-003 
 4.937680924365073E-003  4.999789304595315E-003  5.062678912076551E-003  5.126359573437897E-003 
 5.190841238912249E-003  5.256133983891034E-003  5.322248010498491E-003  5.389193649185785E-003 
 5.456981360345163E-003  5.525621735944406E-003  5.595125501181860E-003  5.665503516162245E-003 
 5.736766777593587E-003  5.808926420505469E-003  5.881993719988904E-003  5.955980092958102E-003 
 6.030897099934358E-003  6.106756446852436E-003  6.183569986889628E-003  6.261349722317835E-003 
 6.340107806378975E-003  6.419856545183913E-003  6.500608399635334E-003  6.582375987374788E-003 
 6.665172084754214E-003  6.749009628832285E-003  6.833901719395828E-003  6.919861621006707E-003 
 7.006902765074437E-003  7.095038751954857E-003  7.184283353075246E-003  7.274650513086091E-003 
 7.366154352039996E-003  7.458809167597965E-003  7.552629437263431E-003  7.647629820644419E-003 
 7.743825161744106E-003  7.841230491280252E-003  7.939861029033766E-003  8.039732186226833E-003 
 8.140859567930966E-003  8.243258975505298E-003  8.346946409065593E-003  8.451938069984297E-003 
 8.558250363422032E-003  8.665899900890953E-003  8.774903502850300E-003  8.885278201334647E-003 
 8.997041242615193E-003  9.110210089894509E-003  9.224802426035248E-003  9.340836156323060E-003 
 9.458329411264376E-003  9.577300549419325E-003  9.697768160270280E-003  9.819751067126547E-003 
 9.943268330065492E-003  1.006833924891075E-002  1.019498336624784E-002  1.032322047047776E-002 
 1.045307059890895E-002  1.058455404088816E-002  1.071769134097069E-002  1.085250330213057E-002 
 1.098901098901099E-002  1.112723573121577E-002  1.126719912664208E-002  1.140892304485523E-002 
 1.155242963050577E-002  1.169774130678966E-002  1.184488077895200E-002  1.199387103783464E-002 
 1.214473536346866E-002  1.229749732871188E-002  1.245218080293216E-002  1.260880995573706E-002 
 1.276740926075037E-002  1.292800349943617E-002  1.309061776497098E-002  1.325527746616462E-002 
 1.342200833143044E-002  1.359083641280533E-002  1.376178809002050E-002  1.393489007462330E-002 
 1.411016941415100E-002  1.428765349635705E-002  1.446737005349035E-002  1.464934716662861E-002 
 1.483361327006598E-002  1.502019715575600E-002  1.520912797781046E-002  1.540043525705466E-002 
 1.559414888564020E-002  1.579029913171566E-002  1.598891664415606E-002  1.619003245735182E-002 
 1.639367799605792E-002  1.659988508030410E-002  1.680868593036681E-002  1.702011317180366E-002 
 1.723419984055131E-002  1.745097938808730E-002  1.767048568665696E-002  1.789275303456606E-002 
 1.811781616153987E-002  1.834571023414992E-002  1.857647086130870E-002  1.881013409983369E-002 
 1.904673646008128E-002  1.928631491165163E-002  1.952890688916526E-002  1.977455029811219E-002 
 2.002328352077484E-002  2.027514542222529E-002  2.053017535639805E-002  2.078841317223923E-002 
 2.104989921993293E-002  2.131467435720610E-002  2.158277995571262E-002  2.185425790749771E-002 
 2.212915063154370E-002  2.240750108039798E-002  2.268935274688448E-002  2.297474967089953E-002 
 2.326373644629313E-002  2.355635822783692E-002  2.385266073827959E-002  2.415269027549124E-002 
 2.445649371969746E-002  2.476411854080449E-002  2.507561280581653E-002  2.539102518634620E-002 
 2.571040496621969E-002  2.603380204917738E-002  2.636126696667141E-002  2.669285088576141E-002 
 2.702860561710935E-002  2.736858362307508E-002  2.771283802591373E-002  2.806142261607612E-002 
 2.841439186061370E-002  2.877180091168903E-002  2.913370561519349E-002  2.950016251947332E-002 
 2.987122888416533E-002  3.024696268914404E-002  3.062742264358079E-002  3.101266819511758E-002 
 3.140275953915567E-002  3.179775762826111E-002  3.219772418168906E-002  3.260272169502713E-002 
 3.301281344996079E-002  3.342806352416116E-002  3.384853680129704E-002  3.427429898117357E-002 
 3.470541658999746E-002  3.514195699077224E-002  3.558398839382377E-002  3.603157986745795E-002 
 3.648480134875331E-002  3.694372365448825E-002  3.740841849220679E-002  3.787895847142283E-002 
 3.835541711496529E-002  3.883786887046674E-002  3.932638912199539E-002  3.982105420183452E-002 
 4.032194140240931E-002  4.082912898836378E-002  4.134269620879027E-002  4.186272330961167E-002 
 4.238929154612058E-002  4.292248319567533E-002  4.346238157055579E-002  4.400907103098164E-002 
 4.456263699829315E-002  4.512316596829902E-002  4.569074552479133E-002  4.626546435323033E-002 
 4.684741225460244E-002  4.743668015945104E-002  4.803336014208524E-002  4.863754543496635E-002 
 4.924933044327543E-002  4.986881075966492E-002  5.049608317919439E-002  5.113124571445570E-002 
 5.177439761088731E-002  5.242563936228135E-002  5.308507272648663E-002  5.375280074130776E-002 
 5.442892774060564E-002  5.511355937059959E-002  5.580680260637452E-002  5.650876576859661E-002 
 5.721955854043791E-002  5.793929198471527E-002  5.866807856124373E-002  5.940603214440843E-002 
 6.015326804095830E-002  6.090990300802224E-002  6.167605527135335E-002  6.245184454380163E-002 
 6.323739204401901E-002  6.403282051540088E-002  6.483825424526393E-002  6.565381908426728E-002 
 6.647964246607638E-002  6.731585342727457E-002  6.816258262752606E-002  6.901996236999083E-002 
 6.988812662199813E-002  7.076721103597873E-002  7.165735297066057E-002  7.255869151253225E-002 
 7.347136749757442E-002  7.439552353326674E-002  7.533130402087014E-002  7.627885517798941E-002 
 7.723832506142089E-002  7.820986359028569E-002  7.919362256945567E-002  8.018975571327293E-002 
 8.119841866956759E-002  8.221976904397897E-002  8.325396642458076E-002  8.430117240681788E-002 
 8.536155061875580E-002  8.643526674664716E-002  8.752248856082176E-002  8.862338594189972E-002 
 8.973813090733677E-002  9.086689763830191E-002  9.200986250689303E-002  9.316720410369650E-002 
 9.433910326569117E-002  9.552574310450551E-002  9.672730903502871E-002  9.794398880438172E-002 
 9.917597252125418E-002  1.004234526856080E-001  1.016866242187570E-001  1.029656844938235E-001 
 1.042608333665772E-001  1.055722732066650E-001  1.069002089292295E-001  1.082448480269295E-001 
 1.096064006023596E-001  1.109850794008797E-001  1.123810998438572E-001  1.137946800623263E-001 
 1.152260409310722E-001  1.166754061031430E-001  1.181430020447951E-001  1.196290580708808E-001 
 1.211338063806770E-001  1.226574820941688E-001  1.242003232887867E-001  1.257625710366057E-001 
 1.273444694420154E-001  1.289462656798595E-001  1.305682100340593E-001  1.322105559367202E-001 
 1.338735600077305E-001  1.355574820948601E-001  1.372625853143606E-001  1.389891360920794E-001 
 1.407374042050884E-001  1.425076628238366E-001  1.443001885548355E-001  1.461152614838768E-001 
 1.479531652197990E-001  1.498141869387996E-001  1.516986174293087E-001  1.536067511374247E-001 
 1.555388862129210E-001  1.574953245558346E-001  1.594763718636365E-001  1.614823376789994E-001 
 1.635135354381632E-001  1.655702825199098E-001  1.676529002951558E-001  1.697617141771651E-001 
 1.718970536723975E-001  1.740592524319938E-001  1.762486483039085E-001  1.784655833857017E-001 
 1.807104040779897E-001  1.829834611385730E-001  1.852851097372423E-001  1.876157095112732E-001 
 1.899756246216227E-001  1.923652238098274E-001  1.947848804556225E-001  1.972349726352819E-001 
 1.997158831806931E-001  2.022279997391766E-001  2.047717148340551E-001  2.073474259259877E-001 
 2.099555354750733E-001  2.125964510037343E-001  2.152705851603958E-001  2.179783557839597E-001 
 2.207201859690953E-001  2.234965041323476E-001  2.263077440790773E-001  2.291543450712465E-001 
 2.320367518960509E-001  2.349554149354214E-001  2.379107902363964E-001  2.409033395823788E-001 
 2.439335305652930E-001  2.470018366586442E-001  2.501087372915025E-001  2.532547179234132E-001 
 2.564402701202497E-001  2.596658916310247E-001  2.629320864656610E-001  2.662393649737470E-001 
 2.695882439242788E-001  2.729792465864049E-001  2.764129028111912E-001  2.798897491144076E-001 
 2.834103287603633E-001  2.869751918467912E-001  2.905848953908000E-001  2.942400034159138E-001 
 2.979410870401968E-001  3.016887245654956E-001  3.054835015677988E-001  3.093260109887325E-001 
 3.132168532282123E-001  3.171566362382531E-001  3.211459756179664E-001  3.251854947097471E-001 
 3.292758246966706E-001  3.334176047011204E-001  3.376114818846476E-001  3.418581115490952E-001 
 3.461581572389886E-001  3.505122908452143E-001  3.549211927100079E-001  3.593855517332546E-001 
 3.639060654801353E-001  3.684834402901205E-001  3.731183913873358E-001  3.778116429923212E-001 
 3.825639284351873E-001  3.873759902702038E-001  3.922485803918232E-001  3.971824601521641E-001 
 4.021784004799784E-001  4.072371820011054E-001  4.123595951604506E-001  4.175464403454923E-001 
 4.227985280113422E-001  4.281166788073849E-001  4.335017237055006E-001  4.389545041299114E-001 
 4.444758720886531E-001  4.500666903067011E-001  4.557278323607782E-001  4.614601828158463E-001 
 4.672646373633273E-001  4.731421029610545E-001  4.790934979749836E-001  4.851197523226954E-001 
 4.912218076186907E-001  4.974006173215249E-001  5.036571468827858E-001  5.099923738979448E-001 
 5.164072882591138E-001  5.229028923097110E-001  5.294802010010859E-001  5.361402420511040E-001 
 5.428840561047273E-001  5.497126968966243E-001  5.566272314158095E-001  5.636287400723704E-001 
 5.707183168662802E-001  5.778970695583346E-001  5.851661198432494E-001  5.925266035249183E-001 
 5.999796706938927E-001  6.075264859070822E-001  6.151682283697160E-001  6.229060921196030E-001 
 6.307412862136950E-001  6.386750349170108E-001  6.467085778939281E-001  6.548431704018790E-001 
 6.630800834874951E-001  6.714206041852019E-001  6.798660357183284E-001  6.884176977027353E-001 
 6.970769263530038E-001  7.058450746912303E-001  7.147235127584287E-001  7.237136278286120E-001 
 7.328168246255518E-001  7.420345255422653E-001  7.513681708632772E-001  7.608192189896554E-001 
 7.703891466668995E-001  7.800794492156806E-001  7.898916407654843E-001  7.998272544912060E-001 
 8.098878428527015E-001  8.200749778373726E-001  8.303902512057877E-001  8.408352747403944E-001 
 8.514116804973733E-001  8.621211210616391E-001  8.729652698050696E-001  8.839458211479705E-001 
 8.950644908238258E-001  9.063230161473969E-001  9.177231562861679E-001  9.292666925352308E-001 
 9.409554285956117E-001  9.527911908560979E-001  9.647758286786255E-001  9.769112146872344E-001 
 9.891992450606792E-001  1.001641839828708E+000  1.014240943172065E+000  1.026998523726283E+000 
 1.039916574889276E+000  1.052997115132823E+000  1.066242188317950E+000  1.079653864014287E+000 
 1.093234237823450E+000  1.106985431706474E+000  1.120909594315381E+000  1.135008901328910E+000 
 1.149285555792464E+000  1.163741788462352E+000  1.178379858154336E+000  1.193202052096589E+000 
 1.208210686287073E+000  1.223408105855410E+000  1.238796685429333E+000  1.254378829505704E+000 
 1.270156972826238E+000  1.286133580757933E+000  1.302311149678278E+000  1.318692207365336E+000 
 1.335279313392692E+000  1.352075059529413E+000  1.369082070145005E+000  1.386303002619474E+000 
 1.403740547758561E+000  1.421397430214165E+000  1.439276408910094E+000  1.457380277473150E+000 
 1.475711864669621E+000  1.494274034847309E+000  1.513069688383063E+000  1.532101762135991E+000 
 1.551373229906341E+000  1.570887102900154E+000  1.590646430199793E+000  1.610654299240343E+000 
 1.630913836292051E+000  1.651428206948802E+000  1.672200616622743E+000  1.693234311045153E+000 
 1.714532576773573E+000  1.736098741705357E+000  1.757936175597656E+000  1.780048290593938E+000 
 1.802438541757165E+000  1.825110427609627E+000  1.848067490679620E+000  1.871313318054958E+000 
 1.894851541943454E+000  1.918685840240488E+000  1.942819937103653E+000  1.967257603534689E+000 
 1.992002657968696E+000  2.017058966870769E+000  2.042430445340157E+000  2.068121057721983E+000 
 2.094134818226703E+000  2.120475791557325E+000  2.147148093544516E+000  2.174155891789733E+000 
 2.201503406316394E+000  2.229194910229285E+000  2.257234730382235E+000  2.285627248054183E+000 
 2.314376899633789E+000  2.343488177312594E+000  2.372965629786968E+000  2.402813862968837E+000 
 2.433037540705353E+000  2.463641385507663E+000  2.494630179288770E+000  2.526008764110756E+000 
 2.557782042941344E+000  2.589954980419985E+000  2.622532603633625E+000  2.655520002902162E+000 
 2.688922332573850E+000  2.722744811830663E+000  2.756992725503787E+000  2.791671424899421E+000 
 2.826786328634890E+000  2.862342923485349E+000  2.898346765241091E+000  2.934803479575628E+000 
 2.971718762924758E+000  3.009098383376600E+000  3.046948181572901E+000  3.085274071621643E+000 
 3.124082042021109E+000  3.163378156595641E+000  3.203168555443079E+000  3.243459455894201E+000 
 3.284257153484182E+000  3.325568022936262E+000  3.367398519157853E+000  3.409755178249081E+000 
 3.452644618524112E+000  3.496073541545254E+000  3.540048733170072E+000  3.584577064611740E+000 
 3.629665493512625E+000  3.675321065031484E+000  3.721550912944259E+000  3.768362260758729E+000 
 3.815762422843243E+000  3.863758805569547E+000  3.912358908470100E+000  3.961570325409865E+000 
 4.011400745772845E+000  4.061857955663618E+000  4.112949839123870E+000  4.164684379364346E+000 
 4.217069660012222E+000  4.270113866374163E+000  4.323825286715346E+000  4.378212313554461E+000 
 4.433283444975111E+000  4.489047285953633E+000  4.545512549703613E+000  4.602688059037410E+000 
 4.660582747744666E+000  4.719205661988285E+000  4.778565961717897E+000  4.838672922101087E+000 
 4.899535934972721E+000  4.961164510302368E+000  5.023568277680318E+000  5.086756987822193E+000 
 5.150740514092495E+000  5.215528854047395E+000  5.281132130996806E+000  5.347560595586233E+000 
 5.414824627398426E+000  5.482934736575187E+000  5.551901565459665E+000  5.621735890259167E+000 
 5.692448622729033E+000  5.764050811877587E+000  5.836553645692540E+000  5.909968452889202E+000 
 5.984306704680543E+000  6.059580016569657E+000  6.135800150164681E+000  6.212979015016541E+000 
 6.291128670479910E+000  6.370261327597433E+000  6.450389351007789E+000  6.531525260877673E+000 
 6.613681734858046E+000  6.696871610065144E+000  6.781107885086194E+000  6.866403722010559E+000 
 6.952772448486309E+000  7.040227559802647E+000  7.128782720998670E+000  7.218451768998460E+000 
 7.309248714773207E+000  7.401187745530433E+000  7.494283226930720E+000  7.588549705332465E+000 
 7.684001910064679E+000  7.780654755728564E+000  7.878523344527911E+000  7.977622968628806E+000 
 8.077969112549164E+000  8.179577455578100E+000  8.282463874225948E+000  8.386644444704963E+000 
 8.492135445441209E+000  8.598953359618204E+000  8.707114877752330E+000  8.816636900300868E+000 