<UPF version="2.0.1">
  <PP_INFO>
    Generated using "atomic" code by A. Dal Corso  v.5.1.2
    Author: ADC
    Generation date: 30Jul2016
    Pseudopotential type: PAW
    Element: Ra
    Functional:  SLA  PW   PBX  PBC

    Suggested minimum cutoff for wavefunctions:  78. Ry
    Suggested minimum cutoff for charge density: 523. Ry
    The Pseudo was generated with a Scalar-Relativistic Calculation
    Local Potential by smoothing AE potential with Bessel fncs, cutoff radius:   2.1000
    Pseudopotential contains additional information for GIPAW reconstruction.

    Valence configuration: 
    nl pn  l   occ       Rcut    Rcut US       E pseu
    6S  1  0  2.00      1.200      2.000    -2.569906
    7S  2  0  2.00      1.200      2.000    -0.241172
    6P  2  1  6.00      1.200      2.200    -1.218523
    5D  3  2 10.00      0.850      1.500    -5.086219
    Generation configuration:
    6S  1  0  2.00      1.200      2.000    -2.569920
    7S  2  0  2.00      1.200      2.000    -0.241177
    7S  2  0  0.00      1.200      2.000     6.000000
    6P  2  1  6.00      1.200      2.200    -1.218533
    7P  3  1  0.00      1.200      2.200     6.500000
    5D  3  2 10.00      0.850      1.500    -5.086234
    5D  3  2 -2.00      0.850      1.500    -3.200000

    Pseudization used: troullier-martins
<PP_INPUTFILE>
 &input
   title='Ra',
   zed=88.,
   rel=1,
   config='[Xe] 4f14.0 5d10.0 6s2.0 6p6.0 6d0. 7s2. 7p0.',
   iswitch=3,
   dft='PBE'
 /
 &inputp
   lpaw=.true.,
   pseudotype=3,
   file_pseudopw='Ra.pbe-spdn-kjpaw_psl.1.0.0.UPF',
   author='ADC',
   lloc=-1,
   rcloc=2.1,
   which_augfun='PSQ',
   rmatch_augfun_nc=.true.,
   nlcc=.true.,
   new_core_ps=.true.,
   rcore=1.2,
   tm=.true.
 /
7
6S  1  0  2.00  0.00  1.20  2.00  0.0
7S  2  0  2.00  0.00  1.20  2.00  0.0
7S  2  0  0.00  6.00  1.20  2.00  0.0
6P  2  1  6.00  0.00  1.20  2.20  0.0
7P  3  1  0.00  6.50  1.20  2.20  0.0
5D  3  2 10.00  0.00  0.85  1.50  0.0
5D  3  2 -2.00 -3.20  0.85  1.50  0.0
</PP_INPUTFILE>
  </PP_INFO>
  <!--                               -->
  <!-- END OF HUMAN READABLE SECTION -->
  <!--                               -->
  <PP_HEADER generated='Generated using "atomic" code by A. Dal Corso  v.5.1.2'
             author="ADC"
             date="30Jul2016"
             comment=""
             element="Ra"
             pseudo_type="PAW"
             relativistic="scalar"
             is_ultrasoft="T"
             is_paw="T"
             is_coulomb="F"
             has_so="F"
             has_wfc="T"
             has_gipaw="T"
             paw_as_gipaw="T"
             core_correction="T"
             functional=" SLA  PW   PBX  PBC"
             z_valence="2.000000000000000E+001"
             total_psenergy="-1.118351101085344E+003"
             wfc_cutoff="7.825907823090292E+001"
             rho_cutoff="5.234225068597208E+002"
             l_max="2"
             l_max_rho="4"
             l_local="-1"
             mesh_size="1287"
             number_of_wfc="4"
             number_of_proj="7"/>
  <PP_MESH dx="1.250000000000000E-002" mesh="1287" xmin="-7.000000000000000E+000" rmax="1.000000000000000E+002"
zmesh="8.800000000000000E+001">
    <PP_R type="real" size="1287" columns="4">
 1.036229506311950E-005  1.049263668942071E-005  1.062461781155207E-005  1.075825905183243E-005 
 1.089358129197750E-005  1.103060567636260E-005  1.116935361532658E-005  1.130984678851717E-005 
 1.145210714827853E-005  1.159615692308130E-005  1.174201862099588E-005  1.188971503320930E-005 
 1.203926923758648E-005  1.219070460227610E-005  1.234404478936202E-005  1.249931375856044E-005 
 1.265653577096367E-005  1.281573539283105E-005  1.297693749942736E-005  1.314016727890975E-005 
 1.330545023626335E-005  1.347281219728651E-005  1.364227931262615E-005  1.381387806186380E-005 
 1.398763525765319E-005  1.416357804990965E-005  1.434173393005244E-005  1.452213073530028E-005 
 1.470479665302100E-005  1.488976022513591E-005  1.507705035257945E-005  1.526669629981508E-005 
 1.545872769940788E-005  1.565317455665474E-005  1.585006725427271E-005  1.604943655714638E-005 
 1.625131361713494E-005  1.645572997793972E-005  1.666271758003299E-005  1.687230876564871E-005 
 1.708453628383605E-005  1.729943329557650E-005  1.751703337896534E-005  1.773737053445832E-005 
 1.796047919018429E-005  1.818639420732459E-005  1.841515088556030E-005  1.864678496858779E-005 
 1.888133264970379E-005  1.911883057746070E-005  1.935931586139289E-005  1.960282607781525E-005 
 1.984939927569454E-005  2.009907398259455E-005  2.035188921069625E-005  2.060788446289335E-005 
 2.086709973896485E-005  2.112957554182501E-005  2.139535288385202E-005  2.166447329329632E-005 
 2.193697882076942E-005  2.221291204581440E-005  2.249231608355905E-005  2.277523459145272E-005 
 2.306171177608789E-005  2.335179240010749E-005  2.364552178919920E-005  2.394294583917766E-005 
 2.424411102315577E-005  2.454906439880630E-005  2.485785361571460E-005  2.517052692282406E-005 
 2.548713317597504E-005  2.580772184553871E-005  2.613234302414700E-005  2.646104743451947E-005 
 2.679388643738901E-005  2.713091203952697E-005  2.747217690186936E-005  2.781773434774526E-005 
 2.816763837120862E-005  2.852194364547498E-005  2.888070553146430E-005  2.924398008645114E-005 
 2.961182407282384E-005  2.998429496695365E-005  3.036145096817558E-005  3.074335100788212E-005 
 3.113005475873146E-005  3.152162264397146E-005  3.191811584688083E-005  3.231959632032918E-005 
 3.272612679645730E-005  3.313777079647918E-005  3.355459264060735E-005  3.397665745810296E-005 
 3.440403119745245E-005  3.483678063667208E-005  3.527497339374214E-005  3.571867793717250E-005 
 3.616796359670076E-005  3.662290057412530E-005  3.708355995427441E-005  3.755001371611343E-005 
 3.802233474399172E-005  3.850059683903081E-005  3.898487473065607E-005  3.947524408827333E-005 
 3.997178153309237E-005  4.047456465009920E-005  4.098367200017875E-005  4.149918313239026E-005 
 4.202117859639695E-005  4.254973995505205E-005  4.308494979714327E-005  4.362689175029732E-005 
 4.417565049404694E-005  4.473131177306231E-005  4.529396241054876E-005  4.586369032181317E-005 
 4.644058452800076E-005  4.702473517000496E-005  4.761623352255204E-005  4.821517200846296E-005 
 4.882164421309477E-005  4.943574489896328E-005  5.005757002055007E-005  5.068721673929547E-005 
 5.132478343878029E-005  5.197036974009856E-005  5.262407651742325E-005  5.328600591376831E-005 
 5.395626135694861E-005  5.463494757574075E-005  5.532217061624731E-005  5.601803785846650E-005 
 5.672265803307065E-005  5.743614123839562E-005  5.815859895764376E-005  5.889014407630369E-005 
 5.963089089978846E-005  6.038095517129631E-005  6.114045408989569E-005  6.190950632883778E-005 
 6.268823205409967E-005  6.347675294316023E-005  6.427519220401260E-005  6.508367459441574E-005 
 6.590232644138797E-005  6.673127566094605E-005  6.757065177809198E-005  6.842058594705181E-005 
 6.928121097176861E-005  7.015266132665342E-005  7.103507317759728E-005  7.192858440324713E-005 
 7.283333461654981E-005  7.374946518656689E-005  7.467711926056378E-005  7.561644178637697E-005 
 7.656757953506213E-005  7.753068112382758E-005  7.850589703925605E-005  7.949337966081831E-005 
 8.049328328468324E-005  8.150576414782612E-005  8.253098045244194E-005  8.356909239066405E-005 
 8.462026216959475E-005  8.568465403665086E-005  8.676243430522684E-005  8.785377138068262E-005 
 8.895883578665652E-005  9.007780019171016E-005  9.121083943630865E-005  9.235813056013876E-005 
 9.351985282977307E-005  9.469618776667965E-005  9.588731917558558E-005  9.709343317319711E-005 
 9.831471821727993E-005  9.955136513610714E-005  1.008035671582757E-004  1.020715199428990E-004 
 1.033554216101798E-004  1.046554727723652E-004  1.059718765650946E-004  1.073048386791388E-004 
 1.086545673925398E-004  1.100212736031556E-004  1.114051708616117E-004  1.128064754046706E-004 
 1.142254061890180E-004  1.156621849254758E-004  1.171170361136449E-004  1.185901870769830E-004 
 1.200818679983256E-004  1.215923119558514E-004  1.231217549595017E-004  1.246704359878578E-004 
 1.262385970254808E-004  1.278264831007235E-004  1.294343423240156E-004  1.310624259266321E-004 
 1.327109882999483E-004  1.343802870351888E-004  1.360705829636775E-004  1.377821401975920E-004 
 1.395152261712322E-004  1.412701116828079E-004  1.430470709367500E-004  1.448463815865576E-004 
 1.466683247781804E-004  1.485131851939486E-004  1.503812510970561E-004  1.522728143766003E-004 
 1.541881705931924E-004  1.561276190251380E-004  1.580914627152002E-004  1.600800085179515E-004 
 1.620935671477188E-004  1.641324532271350E-004  1.661969853362980E-004  1.682874860625500E-004 
 1.704042820508831E-004  1.725477040549766E-004  1.747180869888799E-004  1.769157699793419E-004 
 1.791410964188010E-004  1.813944140190412E-004  1.836760748655213E-004  1.859864354723912E-004 
 1.883258568381961E-004  1.906947045022836E-004  1.930933486019214E-004  1.955221639301293E-004 
 1.979815299942445E-004  2.004718310752178E-004  2.029934562876595E-004  2.055467996406399E-004 
 2.081322600992520E-004  2.107502416469532E-004  2.134011533486865E-004  2.160854094147984E-004 
 2.188034292657606E-004  2.215556375977045E-004  2.243424644487816E-004  2.271643452663572E-004 
 2.300217209750499E-004  2.329150380456279E-004  2.358447485647698E-004  2.388113103057049E-004 
 2.418151867997406E-004  2.448568474086906E-004  2.479367673982133E-004  2.510554280120732E-004 
 2.542133165473364E-004  2.574109264305110E-004  2.606487572946470E-004  2.639273150574043E-004 
 2.672471120001035E-004  2.706086668477714E-004  2.740125048501918E-004  2.774591578639777E-004 
 2.809491644356750E-004  2.844830698859108E-004  2.880614263946016E-004  2.916847930872322E-004 
 2.953537361222199E-004  2.990688287793786E-004  3.028306515494941E-004  3.066397922250282E-004 
 3.104968459919610E-004  3.144024155227907E-004  3.183571110707025E-004  3.223615505649216E-004 
 3.264163597072663E-004  3.305221720699145E-004  3.346796291944010E-004  3.388893806918603E-004 
 3.431520843445284E-004  3.474684062085238E-004  3.518390207179192E-004  3.562646107901237E-004 
 3.607458679325904E-004  3.652834923508644E-004  3.698781930579936E-004  3.745306879853110E-004 
 3.792417040946145E-004  3.840119774917563E-004  3.888422535416594E-004  3.937332869847844E-004 
 3.986858420550573E-004  4.037006925992837E-004  4.087786221980644E-004  4.139204242882300E-004 
 4.191269022868184E-004  4.243988697166093E-004  4.297371503332396E-004  4.351425782539166E-004 
 4.406159980877501E-004  4.461582650677252E-004  4.517702451843332E-004  4.574528153208847E-004 
 4.632068633905253E-004  4.690332884749721E-004  4.749330009649991E-004  4.809069227026854E-004 
 4.869559871254567E-004  4.930811394119361E-004  4.992833366296298E-004  5.055635478844718E-004 
 5.119227544722480E-004  5.183619500319250E-004  5.248821407009105E-004  5.314843452722611E-004 
 5.381695953538742E-004  5.449389355296759E-004  5.517934235228406E-004  5.587341303610635E-004 
 5.657621405439085E-004  5.728785522122657E-004  5.800844773199365E-004  5.873810418073797E-004 
 5.947693857776407E-004  6.022506636744978E-004  6.098260444628424E-004  6.174967118113352E-004 
 6.252638642773552E-004  6.331287154942773E-004  6.410924943611062E-004  6.491564452344920E-004 
 6.573218281231645E-004  6.655899188848131E-004  6.739620094254400E-004  6.824394079012266E-004 
 6.910234389229316E-004  6.997154437628664E-004  7.085167805644711E-004  7.174288245545270E-004 
 7.264529682580405E-004  7.355906217158245E-004  7.448432127048223E-004  7.542121869612005E-004 
 7.636990084062472E-004  7.733051593751158E-004  7.830321408484384E-004  7.928814726868599E-004 
 8.028546938685185E-004  8.129533627295138E-004  8.231790572074029E-004  8.335333750877516E-004 
 8.440179342537944E-004  8.546343729392322E-004  8.653843499842082E-004  8.762695450945081E-004 
 8.872916591040132E-004  8.984524142404623E-004  9.097535543945521E-004  9.211968453924232E-004 
 9.327840752715773E-004  9.445170545602563E-004  9.563976165603455E-004  9.684276176338282E-004 
 9.806089374928466E-004  9.929434794934135E-004  1.005433170932810E-003  1.018079963350735E-003 
 1.030885832834233E-003  1.043852780326465E-003  1.056982831939358E-003  1.070278039270190E-003 
 1.083740479722155E-003  1.097372256828964E-003  1.111175500583523E-003  1.125152367770753E-003 
 1.139305042304588E-003  1.153635735569217E-003  1.168146686764619E-003  1.182840163256439E-003 
 1.197718460930277E-003  1.212783904550411E-003  1.228038848123060E-003  1.243485675264193E-003 
 1.259126799571977E-003  1.274964665003906E-003  1.291001746258679E-003  1.307240549162868E-003 
 1.323683611062466E-003  1.340333501219347E-003  1.357192821212723E-003  1.374264205345644E-003 
 1.391550321056613E-003  1.409053869336378E-003  1.426777585149969E-003  1.444724237864041E-003 
 1.462896631679594E-003  1.481297606070133E-003  1.499930036225344E-003  1.518796833500347E-003 
 1.537900945870599E-003  1.557245358392528E-003  1.576833093669947E-003  1.596667212326343E-003 
 1.616750813483110E-003  1.637087035243787E-003  1.657679055184402E-003  1.678530090849964E-003 
 1.699643400257217E-003  1.721022282403712E-003  1.742670077783278E-003  1.764590168907989E-003 
 1.786785980836678E-003  1.809260981710118E-003  1.832018683292919E-003  1.855062641522255E-003 
 1.878396457063484E-003  1.902023775872756E-003  1.925948289766707E-003  1.950173736999305E-003 
 1.974703902845968E-003  1.999542620195017E-003  2.024693770146574E-003  2.050161282618987E-003 
 2.075949136962895E-003  2.102061362583003E-003  2.128502039567694E-003  2.155275299326538E-003 
 2.182385325235843E-003  2.209836353292314E-003  2.237632672774932E-003  2.265778626915173E-003 
 2.294278613575630E-003  2.323137085937206E-003  2.352358553194918E-003  2.381947581262475E-003 
 2.411908793485717E-003  2.442246871365007E-003  2.472966555286739E-003  2.504072645264023E-003 
 2.535570001686702E-003  2.567463546080805E-003  2.599758261877529E-003  2.632459195191919E-003 
 2.665571455611339E-003  2.699100216993842E-003  2.733050718276616E-003  2.767428264294554E-003 
 2.802238226609166E-003  2.837486044347883E-003  2.873177225053937E-003  2.909317345546933E-003 
 2.945912052794223E-003  2.982967064793266E-003  3.020488171465077E-003  3.058481235558907E-003 
 3.096952193568325E-003  3.135907056658786E-003  3.175351911606903E-003  3.215292921751512E-003 
 3.255736327956706E-003  3.296688449586993E-003  3.338155685494692E-003  3.380144515019781E-003 
 3.422661499002299E-003  3.465713280807492E-003  3.509306587363863E-003  3.553448230214249E-003 
 3.598145106580152E-003  3.643404200439442E-003  3.689232583617611E-003  3.735637416892775E-003 
 3.782625951114542E-003  3.830205528336983E-003  3.878383582965840E-003  3.927167642920165E-003 
 3.976565330808584E-003  4.026584365120328E-003  4.077232561431270E-003  4.128517833625131E-003 
 4.180448195130027E-003  4.233031760170603E-003  4.286276745035875E-003  4.340191469363058E-003 
 4.394784357437517E-003  4.450063939509080E-003  4.506038853124920E-003  4.562717844479168E-003 
 4.620109769779538E-003  4.678223596631123E-003  4.737068405437595E-003  4.796653390820063E-003 
 4.856987863053714E-003  4.918081249522585E-003  4.979943096192609E-003  5.042583069103180E-003 
 5.106010955877519E-003  5.170236667251974E-003  5.235270238624614E-003  5.301121831623280E-003 
 5.367801735693348E-003  5.435320369705502E-003  5.503688283583667E-003  5.572916159953482E-003 
 5.643014815811476E-003  5.713995204215238E-003  5.785868415994878E-003  5.858645681485958E-003 
 5.932338372284277E-003  6.006958003022701E-003  6.082516233170344E-003  6.159024868854401E-003 
 6.236495864704848E-003  6.314941325722406E-003  6.394373509169956E-003  6.474804826487762E-003 
 6.556247845232804E-003  6.638715291042455E-003  6.722220049622903E-003  6.806775168762566E-003 
 6.892393860370835E-003  6.979089502542476E-003  7.066875641647958E-003  7.155765994450117E-003 
 7.245774450247430E-003  7.336915073044228E-003  7.429202103748266E-003  7.522649962395844E-003 
 7.617273250404996E-003  7.713086752856987E-003  7.810105440806503E-003  7.908344473620934E-003 
 8.007819201349018E-003  8.108545167119351E-003  8.210538109569008E-003  8.313813965302747E-003 
 8.418388871383159E-003  8.524279167852068E-003  8.631501400283738E-003  8.740072322370125E-003 
 8.850008898538693E-003  8.961328306603145E-003  9.074047940447470E-003  9.188185412743783E-003 
 9.303758557704347E-003  9.420785433868185E-003  9.539284326922812E-003  9.659273752561346E-003 
 9.780772459375663E-003  9.903799431785891E-003  1.002837389300677E-002  1.015451530805132E-002 
 1.028224338677227E-002  1.041157808694180E-002  1.054253961736993E-002  1.067514844106223E-002 
 1.080942527841721E-002  1.094539111046389E-002  1.108306718214015E-002  1.122247500561230E-002 
 1.136363636363636E-002  1.150657331296176E-002  1.165130818777761E-002  1.179786360320256E-002 
 1.194626245881846E-002  1.209652794224840E-002  1.224868353277991E-002  1.240275300503355E-002 
 1.255876043267782E-002  1.271673019219070E-002  1.287668696666848E-002  1.303865574968264E-002 
 1.320266184918504E-002  1.336873089146240E-002  1.353688882514044E-002  1.370716192523842E-002 
 1.387957679727466E-002  1.405416038142370E-002  1.423093995672574E-002  1.440994314534910E-002 
 1.459119791690615E-002  1.477473259282376E-002  1.496057585076843E-002  1.514875672912731E-002 
 1.533930463154550E-002  1.553224933152041E-002  1.572762097705399E-002  1.592545009536334E-002 
 1.612576759765066E-002  1.632860478393324E-002  1.653399334793411E-002  1.674196538203427E-002 
 1.695255338228717E-002  1.716579025349629E-002  1.738170931435659E-002  1.760034430266061E-002 
 1.782172938057010E-002  1.804589913995391E-002  1.827288860779300E-002  1.850273325165354E-002 
 1.873546898522873E-002  1.897113217395049E-002  1.920975964067150E-002  1.945138867141892E-002 
 1.969605702122041E-002  1.994380292000339E-002  2.019466507856862E-002  2.044868269463874E-002 
 2.070589545898307E-002  2.096634356161933E-002  2.123006769809344E-002  2.149710907583830E-002 
 2.176750942061246E-002  2.204131098301994E-002  2.231855654511191E-002  2.259928942707150E-002 
 2.288355349398269E-002  2.317139316268427E-002  2.346285340871009E-002  2.375797977331656E-002 
 2.405681837059858E-002  2.435941589469499E-002  2.466581962708458E-002  2.497607744397390E-002 
 2.529023782377806E-002  2.560834985469555E-002  2.593046324237845E-002  2.625662831769892E-002 
 2.658689604461355E-002  2.692131802812661E-002  2.725994652235339E-002  2.760283443868510E-002 
 2.795003535405626E-002  2.830160351931628E-002  2.865759386770625E-002  2.901806202344235E-002 
 2.938306431040735E-002  2.975265776095115E-002  3.012690012480236E-002  3.050584987809173E-002 
 3.088956623248915E-002  3.127810914445577E-002  3.167153932461195E-002  3.206991824722386E-002 
 3.247330815980870E-002  3.288177209286092E-002  3.329537386970119E-002  3.371417811644851E-002 
 3.413825027211854E-002  3.456765659884847E-002  3.500246419225035E-002  3.544274099189540E-002 
 3.588855579192919E-002  3.633997825182130E-002  3.679707890724958E-002  3.725992918112129E-002 
 3.772860139473354E-002  3.820316877907307E-002  3.868370548625930E-002  3.917028660113042E-002 
 3.966298815297547E-002  4.016188712741447E-002  4.066706147842705E-002  4.117859014053342E-002 
 4.169655304112780E-002  4.222103111296709E-002  4.275210630681721E-002  4.328986160425752E-002 
 4.383438103064742E-002  4.438574966825517E-002  4.494405366955202E-002  4.550938027067419E-002 
 4.608181780505314E-002  4.666145571721831E-002  4.724838457677285E-002  4.784269609254500E-002 
 4.844448312691843E-002  4.905383971034141E-002  4.967086105601996E-002  5.029564357479475E-002 
 5.092828489020528E-002  5.156888385374440E-002  5.221754056030330E-002  5.287435636381214E-002 
 5.353943389307664E-002  5.421287706781366E-002  5.489479111488959E-002  5.558528258476143E-002 
 5.628445936812629E-002  5.699243071277912E-002  5.770930724068275E-002  5.843520096525331E-002 
 5.917022530886194E-002  5.991449512055784E-002  6.066812669401341E-002  6.143123778569508E-002 
 6.220394763326369E-002  6.298637697420482E-002  6.377864806469494E-002  6.458088469870395E-002 
 6.539321222733785E-002  6.621575757842590E-002  6.704864927635247E-002  6.789201746214002E-002 
 6.874599391378353E-002  6.961071206684076E-002  7.048630703528264E-002  7.137291563260416E-002 
 7.227067639320260E-002  7.317972959402345E-002  7.410021727647854E-002  7.503228326864129E-002 
 7.597607320771900E-002  7.693173456280993E-002  7.789941665794525E-002  7.887927069542086E-002 
 7.987144977942387E-002  8.087610893995451E-002  8.189340515705074E-002  8.292349738531633E-002 
 8.396654657875739E-002  8.502271571593280E-002  8.609216982541873E-002  8.717507601159577E-002 
 8.827160348075884E-002  8.938192356755559E-002  9.050620976175887E-002  9.164463773537358E-002 
 9.279738537008689E-002  9.396463278506220E-002  9.514656236508255E-002  9.634335878904979E-002 
 9.755520905883973E-002  9.878230252852274E-002  1.000248309339501E-001  1.012829884227129E-001 
 1.025569715844788E-001  1.038469794817083E-001  1.051532136807601E-001  1.064758782833856E-001 
 1.078151799586196E-001  1.091713279750740E-001  1.105445342336351E-001  1.119350133005748E-001 
 1.133429824410764E-001  1.147686616531824E-001  1.162122737021706E-001  1.176740441553602E-001 
 1.191542014173588E-001  1.206529767657501E-001  1.221706043872313E-001  1.237073214142062E-001 
 1.252633679618364E-001  1.268389871655610E-001  1.284344252190862E-001  1.300499314128536E-001 
 1.316857581729932E-001  1.333421611007638E-001  1.350193990124931E-001  1.367177339800175E-001 
 1.384374313716304E-001  1.401787598935485E-001  1.419419916318956E-001  1.437274020952184E-001 
 1.455352702575346E-001  1.473658786019220E-001  1.492195131646594E-001  1.510964635799180E-001 
 1.529970231250194E-001  1.549214887662587E-001  1.568701612053079E-001  1.588433449262005E-001 
 1.608413482429069E-001  1.628644833475108E-001  1.649130663589878E-001  1.669874173726016E-001 
 1.690878605099188E-001  1.712147239694522E-001  1.733683400779452E-001  1.755490453422958E-001 
 1.777571805021383E-001  1.799930905830845E-001  1.822571249506327E-001  1.845496373647597E-001 
 1.868709860351939E-001  1.892215336773880E-001  1.916016475691937E-001  1.940116996082484E-001 
 1.964520663700871E-001  1.989231291669806E-001  2.014252741075187E-001  2.039588921569393E-001 
 2.065243791982167E-001  2.091221360939213E-001  2.117525687488525E-001  2.144160881734646E-001 
 2.171131105480871E-001  2.198440572879525E-001  2.226093551090457E-001  2.254094360947765E-001 
 2.282447377634962E-001  2.311157031368594E-001  2.340227808090458E-001  2.369664250168572E-001 
 2.399470957106890E-001  2.429652586264016E-001  2.460213853580918E-001  2.491159534317781E-001 
 2.522494463800189E-001  2.554223538174616E-001  2.586351715173492E-001  2.618884014889841E-001 
 2.651825520561673E-001  2.685181379366278E-001  2.718956803224449E-001  2.753157069614884E-001 
 2.787787522398792E-001  2.822853572654869E-001  2.858360699524818E-001  2.894314451069442E-001 
 2.930720445135575E-001  2.967584370233863E-001  3.004911986427591E-001  3.042709126232745E-001 
 3.080981695529308E-001  3.119735674484102E-001  3.158977118485192E-001  3.198712159088029E-001 
 3.238947004973559E-001  3.279687942918300E-001  3.320941338776698E-001  3.362713638475793E-001 
 3.405011369022389E-001  3.447841139522950E-001  3.491209642216243E-001  3.535123653519052E-001 
 3.579590035084996E-001  3.624615734876648E-001  3.670207788251219E-001  3.716373319059793E-001 
 3.763119540760490E-001  3.810453757545564E-001  3.858383365482677E-001  3.906915853670594E-001 
 3.956058805409324E-001  4.005819899385061E-001  4.056206910869990E-001  4.107227712937151E-001 
 4.158890277690686E-001  4.211202677511431E-001  4.264173086318296E-001  4.317809780845432E-001 
 4.372121141935470E-001  4.427115655849093E-001  4.482801915590972E-001  4.539188622252492E-001 
 4.596284586371299E-001  4.654098729307932E-001  4.712640084639865E-001  4.771917799572956E-001 
 4.831941136370771E-001  4.892719473801814E-001  4.954262308604944E-001  5.016579256973328E-001 
 5.079680056056916E-001  5.143574565483950E-001  5.208272768901536E-001  5.273784775535565E-001 
 5.340120821770381E-001  5.407291272748148E-001  5.475306623988502E-001  5.544177503028461E-001 
 5.613914671082976E-001  5.684529024726456E-001  5.756031597595302E-001  5.828433562112012E-001 
 5.901746231230851E-001  5.975981060205506E-001  6.051149648379056E-001  6.127263740996315E-001 
 6.204335231039118E-001  6.282376161084601E-001  6.361398725186835E-001  6.441415270782258E-001 
 6.522438300618890E-001  6.604480474709998E-001  6.687554612312211E-001  6.771673693928522E-001 
 6.856850863336598E-001  6.943099429642429E-001  7.030432869359987E-001  7.118864828516922E-001 
 7.208409124786743E-001  7.299079749647949E-001  7.390890870570115E-001  7.483856833227693E-001 
 7.577992163741502E-001  7.673311570948426E-001  7.769829948699798E-001  7.867562378188482E-001 
 7.966524130305438E-001  8.066730668025788E-001  8.168197648824894E-001  8.270940927124971E-001 
 8.374976556772254E-001  8.480320793545558E-001  8.586990097696213E-001  8.695001136519988E-001 
 8.804370786961474E-001  8.915116138251040E-001  9.027254494575151E-001  9.140803377780149E-001 
 9.255780530110016E-001  9.372203916978763E-001  9.490091729777418E-001  9.609462388716591E-001 
 9.730334545704621E-001  9.852727087261921E-001  9.976659137472150E-001  1.010215006097027E+000 
 1.022921946596839E+000  1.035788720731960E+000  1.048817338962021E+000  1.062009837035133E+000 
 1.075368276305956E+000  1.088894744057805E+000  1.102591353828789E+000  1.116460245742046E+000 
 1.130503586840159E+000  1.144723571423740E+000  1.159122421394315E+000  1.173702386601487E+000 
 1.188465745194480E+000  1.203414803978114E+000  1.218551898773234E+000  1.233879394781700E+000 
 1.249399686955950E+000  1.265115200373208E+000  1.281028390614424E+000  1.297141744147944E+000 
 1.313457778718042E+000  1.329979043738317E+000  1.346708120690038E+000  1.363647623525518E+000 
 1.380800199076534E+000  1.398168527467915E+000  1.415755322536312E+000  1.433563332254229E+000 
 1.451595339159421E+000  1.469854160789647E+000  1.488342650122939E+000  1.507063696023371E+000 
 1.526020223692449E+000  1.545215195126195E+000  1.564651609577940E+000  1.584332504026990E+000 
 1.604260953653148E+000  1.624440072317205E+000  1.644873013047513E+000  1.665562968532627E+000 
 1.686513171620189E+000  1.707726895822057E+000  1.729207455825791E+000  1.750958208012601E+000 
 1.772982550981762E+000  1.795283926081676E+000  1.817865817947576E+000  1.840731755046004E+000 
 1.863885310226159E+000  1.887330101278138E+000  1.911069791498244E+000  1.935108090261377E+000 
 1.959448753600618E+000  1.984095584794141E+000  2.009052434959460E+000  2.034323203655189E+000 
 2.059911839490356E+000  2.085822340741363E+000  2.112058755976754E+000  2.138625184689778E+000 
 2.165525777938977E+000  2.192764738996779E+000  2.220346324006261E+000  2.248274842646202E+000 
 2.276554658804453E+000  2.305190191259828E+000  2.334185914372538E+000  2.363546358783303E+000 
 2.393276112121304E+000  2.423379819720978E+000  2.453862185347888E+000  2.484727971933684E+000 
 2.515982002320309E+000  2.547629160013606E+000  2.579674389946342E+000  2.612122699250896E+000 
 2.644979158041617E+000  2.678248900207030E+000  2.711937124212044E+000  2.746049093910190E+000 
 2.780590139366141E+000  2.815565657688527E+000  2.850981113873234E+000  2.886842041657355E+000 
 2.923154044383807E+000  2.959922795876895E+000  2.997154041328855E+000  3.034853598197524E+000 
 3.073027357115375E+000  3.111681282809893E+000  3.150821415035614E+000  3.190453869517836E+000 
 3.230584838908193E+000  3.271220593752311E+000  3.312367483469548E+000  3.354031937345140E+000 
 3.396220465534779E+000  3.438939660081816E+000  3.482196195947325E+000  3.525996832053027E+000 
 3.570348412337434E+000  3.615257866825205E+000  3.660732212709961E+000  3.706778555450776E+000 
 3.753404089882374E+000  3.800616101339375E+000  3.848421966794632E+000  3.896829156011868E+000 
 3.945845232712899E+000  3.995477855759418E+000  4.045734780349762E+000  4.096623859230656E+000 
 4.148153043924192E+000  4.200330385970332E+000  4.253164038184911E+000  4.306662255933586E+000 
 4.360833398421730E+000  4.415685930000555E+000  4.471228421489733E+000  4.527469551516545E+000 
 4.584418107871990E+000  4.642082988883870E+000  4.700473204807145E+000  4.759597879231867E+000 
 4.819466250508689E+000  4.880087673192431E+000  4.941471619503734E+000  5.003627680809078E+000 
 5.066565569119517E+000  5.130295118608131E+000  5.194826287146693E+000  5.260169157861586E+000 
 5.326333940709284E+000  5.393330974071738E+000  5.461170726371697E+000  5.529863797708491E+000 
 5.599420921514281E+000  5.669852966231160E+000  5.741170937009426E+000  5.813385977427093E+000 
 5.886509371231159E+000  5.960552544100687E+000  6.035527065432058E+000  6.111444650146789E+000 
 6.188317160521925E+000  6.266156608043622E+000  6.344975155283932E+000  6.424785117801195E+000 
 6.505598966064453E+000  6.587429327401892E+000  6.670288987973964E+000  6.754190894771230E+000 
 6.839148157637298E+000  6.925174051317365E+000  7.012282017532314E+000  7.100485667079101E+000 
 7.189798781957433E+000  7.280235317523192E+000  7.371809404669079E+000  7.464535352032498E+000 
 7.558427648231384E+000  7.653500964128062E+000  7.749770155121539E+000  7.847250263468800E+000 
 7.945956520635066E+000  8.045904349673856E+000  8.147109367636817E+000  8.249587388013879E+000 
 8.353354423204250E+000  8.458426687018262E+000  8.564820597210923E+000  8.672552778047178E+000 
 8.781640062899431E+000  8.892099496877917E+000  9.003948339493887E+000  9.117204067356580E+000 
 9.231884376903908E+000  9.348007187167527E+000  9.465590642572828E+000  9.584653115773904E+000 
 9.705213210524450E+000  9.827289764584565E+000  9.950901852664158E+000  1.007606878940351E+001 