<UPF version="2.0.1">
  <PP_INFO>
    Generated using "atomic" code by A. Dal Corso  v.5.1.2
    Author: ADC
    Generation date: 30Jul2016
    Pseudopotential type: USPP
    Element: Rn
    Functional: PBE

    Suggested minimum cutoff for wavefunctions:  49. Ry
    Suggested minimum cutoff for charge density: 213. Ry
    The Pseudo was generated with a Scalar-Relativistic Calculation
    Local Potential by smoothing AE potential with Bessel fncs, cutoff radius:   1.9000
    Pseudopotential contains additional information for GIPAW reconstruction.

    Valence configuration: 
    nl pn  l   occ       Rcut    Rcut US       E pseu
    6S  1  0  2.00      1.400      1.700    -1.608059
    6P  2  1  6.00      1.400      2.000    -0.567050
    5D  3  2 10.00      1.400      1.550    -3.400484
    Generation configuration:
    6S  1  0  2.00      1.400      1.700    -1.608051
    6S  1  0  0.00      1.400      1.700     4.000000
    6P  2  1  6.00      1.400      2.000    -0.567047
    6P  2  1  0.00      1.400      2.000     7.000000
    5D  3  2 10.00      1.400      1.550    -3.400484
    5D  3  2  0.00      1.400      1.550     5.500000

    Pseudization used: troullier-martins
<PP_INPUTFILE>
 &input
   title='Rn',
   zed=86.,
   rel=1,
   config='[Xe] 4f14 6s2 6p6 5d10',
   iswitch=3,
   dft='PBE'
 /
 &inputp
   lpaw=.false.,
   pseudotype=3,
   file_pseudopw='Rn.pbe-dn-rrkjus_psl.1.0.0.UPF',
   author='ADC',
   lloc=-1,
   rcloc=1.9,
   which_augfun='PSQ',
   rmatch_augfun_nc=.true.,
   nlcc=.true.,
   new_core_ps=.true.,
   rcore=1.5,
   tm=.true.
 /
6
6S  1  0  2.00  0.00  1.40  1.70  0.0
6S  1  0  0.00  4.00  1.40  1.70  0.0
6P  2  1  6.00  0.00  1.40  2.00  0.0
6P  2  1  0.00  7.00  1.40  2.00  0.0
5D  3  2 10.00  0.00  1.40  1.55  0.0
5D  3  2  0.00  5.50  1.40  1.55  0.0
</PP_INPUTFILE>
  </PP_INFO>
  <!--                               -->
  <!-- END OF HUMAN READABLE SECTION -->
  <!--                               -->
  <PP_HEADER generated='Generated using "atomic" code by A. Dal Corso  v.5.1.2'
             author="ADC"
             date="30Jul2016"
             comment=""
             element="Rn"
             pseudo_type="USPP"
             relativistic="scalar"
             is_ultrasoft="T"
             is_paw="F"
             is_coulomb="F"
             has_so="F"
             has_wfc="F"
             has_gipaw="T"
             paw_as_gipaw="F"
             core_correction="T"
             functional="PBE"
             z_valence="1.800000000000000E+001"
             total_psenergy="-2.374387306680937E+002"
             wfc_cutoff="4.945730576652949E+001"
             rho_cutoff="2.130064104973694E+002"
             l_max="2"
             l_max_rho="4"
             l_local="-1"
             mesh_size="1285"
             number_of_wfc="3"
             number_of_proj="6"/>
  <PP_MESH dx="1.250000000000000E-002" mesh="1285" xmin="-7.000000000000000E+000" rmax="1.000000000000000E+002"
zmesh="8.600000000000000E+001">
    <PP_R type="real" size="1285" columns="4">
 1.060327866923856E-005  1.073665149615142E-005  1.087170194670444E-005  1.100845112280528E-005 
 1.114692039179093E-005  1.128713138976638E-005  1.142910602498533E-005  1.157286648127339E-005 
 1.171843522149431E-005  1.186583499105994E-005  1.201508882148415E-005  1.216622003398161E-005 
 1.231925224311175E-005  1.247420936046857E-005  1.263111559841695E-005  1.278999547387579E-005 
 1.295087381214888E-005  1.311377575080386E-005  1.327872674360009E-005  1.344575256446579E-005 
 1.361487931152528E-005  1.378613341117689E-005  1.395954162222210E-005  1.413513104004668E-005 
 1.431292910085443E-005  1.449296358595406E-005  1.467526262610017E-005  1.485985470588866E-005 
 1.504676866820753E-005  1.523603371874372E-005  1.542767943054641E-005  1.562173574864799E-005 
 1.581823299474295E-005  1.601720187192578E-005  1.621867346948836E-005  1.642267926777769E-005 
 1.662925114311482E-005  1.683842137277553E-005  1.705022264003376E-005  1.726468803926845E-005 
 1.748185108113456E-005  1.770174569779920E-005  1.792440624824361E-005  1.814986752363177E-005 
 1.837816475274671E-005  1.860933360749494E-005  1.884341020848031E-005  1.908043113064798E-005 
 1.932043340899923E-005  1.956345454437839E-005  1.980953250933226E-005  2.005870575404352E-005 
 2.031101321233860E-005  2.056649430777117E-005  2.082518895978221E-005  2.108713758993739E-005 
 2.135238112824311E-005  2.162096101954187E-005  2.189291922998811E-005  2.216829825360554E-005 
 2.244714111892685E-005  2.272949139571706E-005  2.301539320178136E-005  2.330489120985859E-005 
 2.359803065460156E-005  2.389485733964487E-005  2.419541764476197E-005  2.449975853311202E-005 
 2.480792755857800E-005  2.511997287319714E-005  2.543594323468471E-005  2.575588801405252E-005 
 2.607985720332330E-005  2.640790142334194E-005  2.674007193168530E-005  2.707642063067109E-005 
 2.741700007546783E-005  2.776186348230667E-005  2.811106473679655E-005  2.846465840234399E-005 
 2.882269972867859E-005  2.918524466048603E-005  2.955234984614951E-005  2.992407264660116E-005 
 3.030047114428486E-005  3.068160415223165E-005  3.106753122324942E-005  3.145831265922822E-005 
 3.185400952056242E-005  3.225468363569173E-005  3.266039761076178E-005  3.307121483940660E-005 
 3.348719951265399E-005  3.390841662895544E-005  3.433493200434240E-005  3.476681228271001E-005 
 3.520412494623041E-005  3.564693832589701E-005  3.609532161220127E-005  3.654934486594396E-005 
 3.700907902918218E-005  3.747459593631426E-005  3.794596832530405E-005  3.842326984904630E-005 
 3.890657508687526E-005  3.939595955621758E-005  3.989149972439226E-005  4.039327302055876E-005 
 4.090135784781545E-005  4.141583359545035E-005  4.193678065134570E-005  4.246428041453888E-005 
 4.299841530794107E-005  4.353926879121605E-005  4.408692537382102E-005  4.464147062821120E-005 
 4.520299120321082E-005  4.577157483755213E-005  4.634731037358477E-005  4.693028777115766E-005 
 4.752059812167519E-005  4.811833366233066E-005  4.872358779051837E-005  4.933645507842722E-005 
 4.995703128781791E-005  5.058541338498568E-005  5.122169955591170E-005  5.186598922160467E-005 
 5.251838305363565E-005  5.317898298986829E-005  5.384789225038658E-005  5.452521535362339E-005 
 5.521105813269160E-005  5.590552775192077E-005  5.660873272360190E-005  5.732078292494246E-005 
 5.804178961523508E-005  5.877186545324203E-005  5.951112451479827E-005  6.025968231063634E-005 
 6.101765580443471E-005  6.178516343109390E-005  6.256232511524210E-005  6.334926228997355E-005 
 6.414609791582293E-005  6.495295649997791E-005  6.576996411573381E-005  6.659724842219285E-005 
 6.743493868421095E-005  6.828316579259596E-005  6.914206228455923E-005  7.001176236442511E-005 
 7.089240192460044E-005  7.178411856680815E-005  7.268705162358792E-005  7.360134218006682E-005 
 7.452713309600446E-005  7.546456902811496E-005  7.641379645266992E-005  7.737496368838575E-005 
 7.834822091959845E-005  7.933372021973056E-005  8.033161557505270E-005  8.134206290874432E-005 
 8.236522010525728E-005  8.340124703498487E-005  8.445030557924292E-005  8.551255965556322E-005 
 8.658817524330625E-005  8.767732040959623E-005  8.878016533558095E-005  8.989688234302408E-005 
 9.102764592122992E-005  9.217263275430807E-005  9.333202174878094E-005  9.450599406153734E-005 
 9.569473312813988E-005  9.689842469148615E-005  9.811725683083176E-005  9.935141999117845E-005 
 1.006011070130306E-004  1.018665131625282E-004  1.031478361619565E-004  1.044452762206409E-004 
 1.057590360662305E-004  1.070893209763737E-004  1.084363388107945E-004  1.098003000437699E-004 
 1.111814177970175E-004  1.125799078729964E-004  1.139959887886259E-004  1.154298818094304E-004 
 1.168818109841115E-004  1.183520031795566E-004  1.198406881162878E-004  1.213480984043547E-004 
 1.228744695796820E-004  1.244200401408713E-004  1.259850515864669E-004  1.275697484526917E-004 
 1.291743783516547E-004  1.307991920100426E-004  1.324444433082951E-004  1.341103893202747E-004 
 1.357972903534355E-004  1.375054099894956E-004  1.392350151256235E-004  1.409863760161407E-004 
 1.427597663147493E-004  1.445554631172918E-004  1.463737470050465E-004  1.482149020885706E-004 
 1.500792160520915E-004  1.519669801984591E-004  1.538784894946621E-004  1.558140426179166E-004 
 1.577739420023364E-004  1.597584938861877E-004  1.617680083597398E-004  1.638027994137178E-004 
 1.658631849883634E-004  1.679494870231149E-004  1.700620315069096E-004  1.722011485291209E-004 
 1.743671723311362E-004  1.765604413585808E-004  1.787812983142027E-004  1.810300902114197E-004 
 1.833071684285405E-004  1.856128887636700E-004  1.879476114903009E-004  1.903117014136096E-004 
 1.927055279274565E-004  1.951294650721042E-004  1.975838915926637E-004  2.000691909982719E-004 
 2.025857516220176E-004  2.051339666816182E-004  2.077142343408609E-004  2.103269577718176E-004 
 2.129725452178393E-004  2.156514100573475E-004  2.183639708684234E-004  2.211106514942123E-004 
 2.238918811091504E-004  2.267080942860232E-004  2.295597310638695E-004  2.324472370167376E-004 
 2.353710633233069E-004  2.383316668373867E-004  2.413295101592993E-004  2.443650617081631E-004 
 2.474387957950834E-004  2.505511926972648E-004  2.537027387330555E-004  2.568939263379354E-004 
 2.601252541414605E-004  2.633972270451741E-004  2.667103563014992E-004  2.700651595936230E-004 
 2.734621611163850E-004  2.769018916581846E-004  2.803848886839171E-004  2.839116964189539E-004 
 2.874828659341791E-004  2.910989552320948E-004  2.947605293340110E-004  2.984681603683306E-004 
 3.022224276599459E-004  3.060239178207594E-004  3.098732248413429E-004  3.137709501837498E-004 
 3.177177028754950E-004  3.217140996047160E-004  3.257607648165328E-004  3.298583308106174E-004 
 3.340074378399934E-004  3.382087342110753E-004  3.424628763849685E-004  3.467705290800432E-004 
 3.511323653757965E-004  3.555490668180243E-004  3.600213235253127E-004  3.645498342968708E-004 
 3.691353067217204E-004  3.737784572892566E-004  3.784800115012027E-004  3.832407039849694E-004 
 3.880612786084428E-004  3.929424885962158E-004  3.978850966472794E-004  4.028898750541980E-004 
 4.079576058237795E-004  4.130890807992670E-004  4.182851017840659E-004  4.235464806670260E-004 
 4.288740395493025E-004  4.342686108728096E-004  4.397310375502917E-004  4.452621730970309E-004 
 4.508628817642094E-004  4.565340386739513E-004  4.622765299560619E-004  4.680912528864866E-004 
 4.739791160275142E-004  4.799410393697389E-004  4.859779544758130E-004  4.920908046260037E-004 
 4.982805449655835E-004  5.045481426540742E-004  5.108945770163654E-004  5.173208396957387E-004 
 5.238279348088119E-004  5.304168791024350E-004  5.370887021125595E-004  5.438444463251044E-004 
 5.506851673388481E-004  5.576119340303660E-004  5.646258287210462E-004  5.717279473462045E-004 
 5.789193996263250E-004  5.862013092404578E-004  5.935748140017956E-004  6.010410660354583E-004 
 6.086012319585160E-004  6.162564930622768E-004  6.240080454968620E-004  6.318571004581104E-004 
 6.398048843768286E-004  6.478526391104232E-004  6.560016221369459E-004  6.642531067515731E-004 
 6.726083822655638E-004  6.810687542077158E-004  6.896355445283573E-004  6.983100918059064E-004 
 7.070937514560230E-004  7.159878959433981E-004  7.249939149962030E-004  7.341132158232369E-004 
 7.433472233338089E-004  7.526973803603786E-004  7.621651478840042E-004  7.717520052626238E-004 
 7.814594504622065E-004  7.912890002908162E-004  8.012421906356114E-004  8.113205767028333E-004 
 8.215257332608096E-004  8.318592548860141E-004  8.423227562122263E-004  8.529178721828155E-004 
 8.636462583062082E-004  8.745095909145631E-004  8.855095674257015E-004  8.966479066083339E-004 
 9.079263488506183E-004  9.193466564321010E-004  9.309106137990765E-004  9.426200278434097E-004 
 9.544767281848697E-004  9.664825674570066E-004  9.786394215966325E-004  9.909491901369403E-004 
 1.003413796504308E-003  1.016035188318842E-003  1.028815337698690E-003  1.041756241568194E-003 
 1.054859921969913E-003  1.068128426380568E-003  1.081563828030971E-003  1.095168226229962E-003 
 1.108943746692438E-003  1.122892541871499E-003  1.137016791294768E-003  1.151318701904957E-003 
 1.165800508404695E-003  1.180464473605710E-003  1.195312888782400E-003  1.210348074029845E-003 
 1.225572378626329E-003  1.240988181400421E-003  1.256597891102666E-003  1.272403946781965E-003 
 1.288408818166674E-003  1.304615006050508E-003  1.321025042683300E-003  1.337641492166656E-003 
 1.354466950854617E-003  1.371504047759332E-003  1.388755444961856E-003  1.406223838028101E-003 
 1.423911956430023E-003  1.441822563972108E-003  1.459958459223225E-003  1.478322475953902E-003 
 1.496917483579119E-003  1.515746387606648E-003  1.534812130091050E-003  1.554117690093378E-003 
 1.573666084146659E-003  1.593460366727238E-003  1.613503630732038E-003  1.633799007961839E-003 
 1.654349669610624E-003  1.675158826761085E-003  1.696229730886365E-003  1.717565674358103E-003 
 1.739169990960874E-003  1.761046056413101E-003  1.783197288894517E-003  1.805627149580268E-003 
 1.828339143181717E-003  1.851336818494074E-003  1.874623768950894E-003  1.898203633185563E-003 
 1.922080095599844E-003  1.946256886939565E-003  1.970737784877560E-003  1.995526614603940E-003 
 2.020627249423781E-003  2.046043611362343E-003  2.071779671777890E-003  2.097839451982219E-003 
 2.124227023869009E-003  2.150946510550050E-003  2.178002086999501E-003  2.205397980706225E-003 
 2.233138472334351E-003  2.261227896392136E-003  2.289670641909233E-003  2.318471153122502E-003 
 2.347633930170412E-003  2.377163529796210E-003  2.407064566059916E-003  2.437341711059277E-003 
 2.467999695659803E-003  2.499043310233961E-003  2.530477405409686E-003  2.562306892828302E-003 
 2.594536745911975E-003  2.627172000640824E-003  2.660217756339797E-003  2.693679176475452E-003 
 2.727561489462765E-003  2.761869989482071E-003  2.796610037306304E-003  2.831787061138614E-003 
 2.867406557460542E-003  2.903474091890857E-003  2.939995300055192E-003  2.976975888466629E-003 
 3.014421635417344E-003  3.052338391881482E-003  3.090732082429381E-003  3.129608706153301E-003 
 3.168974337604798E-003  3.208835127743875E-003  3.249197304900087E-003  3.290067175745733E-003 
 3.331451126281280E-003  3.373355622833202E-003  3.415787213064337E-003  3.458752526996985E-003 
 3.502258278048864E-003  3.546311264082085E-003  3.590918368465348E-003  3.636086561149464E-003 
 3.681822899756435E-003  3.728134530682220E-003  3.775028690213369E-003  3.822512705657723E-003 
 3.870593996489298E-003  3.919280075507610E-003  3.968578550011558E-003  4.018497122988076E-003 
 4.069043594315761E-003  4.120225861983591E-003  4.172051923325021E-003  4.224529876267575E-003 
 4.277667920598167E-003  4.331474359244337E-003  4.385957599571594E-003  4.441126154697083E-003 
 4.496988644819785E-003  4.553553798567430E-003  4.610830454360383E-003  4.668827561792637E-003 
 4.727554183030225E-003  4.787019494227195E-003  4.847232786959399E-003  4.908203469676344E-003 
 4.969941069171242E-003  5.032455232069622E-003  5.095755726336623E-003  5.159852442803254E-003 
 5.224755396711880E-003  5.290474729281089E-003  5.357020709290303E-003  5.424403734684287E-003 
 5.492634334197845E-003  5.561723169000978E-003  5.631681034364682E-003  5.702518861347749E-003 
 5.774247718504766E-003  5.846878813615592E-003  5.920423495436620E-003  5.994893255474003E-003 
 6.070299729779260E-003  6.146654700767415E-003  6.223970099058026E-003  6.302258005339387E-003 
 6.381530652256123E-003  6.461800426320601E-003  6.543079869848327E-003  6.625381682917709E-003 
 6.708718725354498E-003  6.793104018741117E-003  6.878550748451342E-003  6.965072265710532E-003 
 7.052682089681784E-003  7.141393909578348E-003  7.231221586802562E-003  7.322179157111749E-003 
 7.414280832811323E-003  7.507541004975489E-003  7.601974245695900E-003  7.697595310358537E-003 
 7.794419139949298E-003  7.892460863388545E-003  7.991735799895027E-003  8.092259461379559E-003 
 8.194047554868763E-003  8.297115984959335E-003  8.401480856303170E-003  8.507158476123742E-003 
 8.614165356764163E-003  8.722518218267233E-003  8.832233990988010E-003  8.943329818239198E-003 
 9.055823058969825E-003  9.169731290477637E-003  9.285072311155549E-003  9.401864143272707E-003 
 9.520125035790495E-003  9.639873467213957E-003  9.761128148479157E-003  9.883908025876726E-003 
 1.000823228401231E-002  1.013412034880417E-002  1.026159189051855E-002  1.039066682684321E-002 
 1.052136532599953E-002  1.065370780989393E-002  1.078771495730876E-002  1.092340770713344E-002 
 1.106080726163621E-002  1.119993508977700E-002  1.134081293056201E-002  1.148346279644049E-002 
 1.162790697674419E-002  1.177416804117017E-002  1.192226884330732E-002  1.207223252420727E-002 
 1.222408251600029E-002  1.237784254555650E-002  1.253353663819339E-002  1.269118912142967E-002 
 1.285082462878661E-002  1.301246810363699E-002  1.317614480310263E-002  1.334188030200084E-002 
 1.350970049684051E-002  1.367963160986850E-002  1.385170019316696E-002  1.402593313280210E-002 
 1.420235765302523E-002  1.438100132052657E-002  1.456189204874262E-002  1.474505810221768E-002 
 1.493052810102025E-002  1.511833102521501E-002  1.530849621939095E-002  1.550105339724655E-002 
 1.569603264623260E-002  1.589346443225344E-002  1.609337960442735E-002  1.629580939990667E-002 
 1.650078544875882E-002  1.670833977890843E-002  1.691850482114187E-002  1.713131341417460E-002 
 1.734679880978222E-002  1.756499467799620E-002  1.778593511236488E-002  1.800965463528062E-002 
 1.823618820337406E-002  1.846557121297609E-002  1.869783950564865E-002  1.893302937378501E-002 
 1.917117756628056E-002  1.941232129427492E-002  1.965649823696618E-002  1.990374654749844E-002 
 2.015410485892321E-002  2.040761229023603E-002  2.066430845248882E-002  2.092423345497918E-002 
 2.118742791151756E-002  2.145393294677327E-002  2.172379020270026E-002  2.199704184504384E-002 
 2.227373056992903E-002  2.255389961053204E-002  2.283759274383545E-002  2.312485429746851E-002 
 2.341572915663346E-002  2.371026277111879E-002  2.400850116240102E-002  2.431049093083555E-002 
 2.461627926293808E-002  2.492591393875767E-002  2.523944333934236E-002  2.555691645429887E-002 
 2.587838288944732E-002  2.620389287457219E-002  2.653349727127098E-002  2.686724758090122E-002 
 2.720519595262781E-002  2.754739519157141E-002  2.789389876705928E-002  2.824476082098010E-002 
 2.860003617624361E-002  2.895978034534689E-002  2.932404953904825E-002  2.969290067515031E-002 
 3.006639138739357E-002  3.044458003446165E-002  3.082752570910009E-002  3.121528824734968E-002 
 3.160792823789587E-002  3.200550703153613E-002  3.240808675076572E-002  3.281573029948488E-002 
 3.322850137282751E-002  3.364646446711350E-002  3.406968488992680E-002  3.449822877031940E-002 
 3.493216306914456E-002  3.537155558951937E-002  3.581647498741897E-002  3.626699078240460E-002 
 3.672317336848568E-002  3.718509402511947E-002  3.765282492834841E-002  3.812643916207760E-002 
 3.860601072949478E-002  3.909161456463291E-002  3.958332654407928E-002  4.008122349883113E-002 
 4.058538322630048E-002  4.109588450247062E-002  4.161280709420442E-002  4.213623177170862E-002 
 4.266624032115403E-002  4.320291555745469E-002  4.374634133720831E-002  4.429660257179840E-002 
 4.485378524066248E-002  4.541797640472622E-002  4.598926422000671E-002  4.656773795138755E-002 
 4.715348798656600E-002  4.774660585017687E-002  4.834718421809315E-002  4.895531693190651E-002 
 4.957109901359096E-002  5.019462668034935E-002  5.082599735964833E-002  5.146530970444114E-002 
 5.211266360858215E-002  5.276816022243613E-002  5.343190196868244E-002  5.410399255831940E-002 
 5.478453700686912E-002  5.547364165078607E-002  5.617141416407306E-002  5.687796357510472E-002 
 5.759340028366411E-002  5.831783607819259E-002  5.905138415325676E-002  5.979415912723595E-002 
 6.054627706023082E-002  6.130785547219872E-002  6.207901336131604E-002  6.285987122257171E-002 
 6.365055106659541E-002  6.445117643872121E-002  6.526187243829250E-002  6.608276573820869E-002 
 6.691398460471780E-002  6.775565891745906E-002  6.860792018975602E-002  6.947090158916654E-002 
 7.034473795829012E-002  7.122956583583705E-002  7.212552347796362E-002  7.303275087987403E-002 
 7.395138979769569E-002  7.488158377062865E-002  7.582347814337340E-002  7.677722008884226E-002 
 7.774295863115432E-002  7.872084466892178E-002  7.971103099882770E-002  8.071367233950041E-002 
 8.172892535568954E-002  8.275694868274415E-002  8.379790295140076E-002  8.485195081288183E-002 
 8.591925696430990E-002  8.699998817444286E-002  8.809431330973080E-002  8.920240336070265E-002 
 9.032443146868346E-002  9.146057295284758E-002  9.261100533761372E-002  9.377590838038227E-002 
 9.495546409962380E-002  9.614985680331946E-002  9.735927311775890E-002  9.858390201670211E-002 
 9.982393485090578E-002  1.010795653780233E-001  1.023509897928792E-001  1.036384067581249E-001 
 1.049420174352806E-001  1.062620255161666E-001  1.075986372547313E-001  1.089520614992783E-001 
 1.103225097250991E-001  1.117101960675176E-001  1.131153373553475E-001  1.145381531447742E-001 
 1.159788657536596E-001  1.174377002962797E-001  1.189148847185001E-001  1.204106498333918E-001 
 1.219252293572973E-001  1.234588599463490E-001  1.250117812334460E-001  1.265842358656994E-001 
 1.281764695423442E-001  1.297887310531322E-001  1.314212723172045E-001  1.330743484224549E-001 
 1.347482176653884E-001  1.364431415914792E-001  1.381593850360395E-001  1.398972161655993E-001 
 1.416569065198078E-001  1.434387310538636E-001  1.452429681814746E-001  1.470698998183630E-001 
 1.489198114263144E-001  1.507929920577806E-001  1.526897344010469E-001  1.546103348259626E-001 
 1.565550934302524E-001  1.585243140864042E-001  1.605183044891523E-001  1.625373762035540E-001 
 1.645818447136722E-001  1.666520294718715E-001  1.687482539487317E-001  1.708708456835923E-001 
 1.730201363357308E-001  1.751964617361836E-001  1.774001619402230E-001  1.796315812804887E-001 
 1.818910684207927E-001  1.841789764105980E-001  1.864956627401823E-001  1.888414893964984E-001 
 1.912168229197333E-001  1.936220344605831E-001  1.960574998382447E-001  1.985235995991379E-001 
 2.010207190763682E-001  2.035492484499336E-001  2.061095828076935E-001  2.087021222071007E-001 
 2.113272717377101E-001  2.139854415844776E-001  2.166770470918490E-001  2.194025088286614E-001 
 2.221622526538566E-001  2.249567097830211E-001  2.277863168557677E-001  2.306515160039574E-001 
 2.335527549207868E-001  2.364904869307398E-001  2.394651710604190E-001  2.424772721102725E-001 
 2.455272607272166E-001  2.486156134781784E-001  2.517428129245590E-001  2.549093476976334E-001 
 2.581157125749031E-001  2.613624085574026E-001  2.646499429479852E-001  2.679788294305884E-001 
 2.713495881504968E-001  2.747627457956192E-001  2.782188356787808E-001  2.817183978210579E-001 
 2.852619790361555E-001  2.888501330158471E-001  2.924834204164930E-001  2.961624089466406E-001 
 2.998876734557333E-001  3.036597960239302E-001  3.074793660530558E-001  3.113469803586995E-001 
 3.152632432634641E-001  3.192287666913965E-001  3.232441702636011E-001  3.273100813950541E-001 
 3.314271353926432E-001  3.355959755544307E-001  3.398172532701738E-001  3.440916281231044E-001 
 3.484197679929887E-001  3.528023491604879E-001  3.572400564128248E-001  3.617335831507867E-001 
 3.662836314970694E-001  3.708909124059825E-001  3.755561457745433E-001  3.802800605549555E-001 
 3.850633948685153E-001  3.899068961209414E-001  3.948113211191576E-001  3.997774361895491E-001 
 4.048060172976982E-001  4.098978501696342E-001  4.150537304146036E-001  4.202744636493830E-001 
 4.255608656241632E-001  4.309137623500069E-001  4.363339902279186E-001  4.418223961795326E-001 
 4.473798377794435E-001  4.530071833892095E-001  4.587053122930297E-001  4.644751148351388E-001 
 4.703174925589236E-001  4.762333583477884E-001  4.822236365678002E-001  4.882892632121164E-001 
 4.944311860472417E-001  5.006503647611158E-001  5.069477711130641E-001  5.133243890856428E-001 
 5.197812150383820E-001  5.263192578634740E-001  5.329395391434130E-001  5.396430933106160E-001 
 5.464309678090622E-001  5.533042232579500E-001  5.602639336174281E-001  5.673111863564007E-001 
 5.744470826224440E-001  5.816727374138699E-001  5.889892797539380E-001  5.963978528672756E-001 
 6.038996143585057E-001  6.114957363931215E-001  6.191874058806476E-001  6.269758246600879E-001 
 6.348622096877237E-001  6.428477932272615E-001  6.509338230423739E-001  6.591215625916729E-001 
 6.674122912261190E-001  6.758073043889301E-001  6.843079138179937E-001  6.929154477508255E-001 
 7.016312511321169E-001  7.104566858238764E-001  7.193931308182312E-001  7.284419824528944E-001 
 7.376046546293412E-001  7.468825790337437E-001  7.562772053606629E-001  7.657900015395779E-001 
 7.754224539642466E-001  7.851760677249552E-001  7.950523668437003E-001  8.050528945123098E-001 
 8.151792133335797E-001  8.254329055654295E-001  8.358155733681287E-001  8.463288390546482E-001 
 8.569743453441377E-001  8.677537556186152E-001  8.786687541828684E-001  8.897210465276266E-001 
 9.009123595960578E-001  9.122444420535948E-001  9.237190645611782E-001  9.353380200519222E-001 
 9.471031240112574E-001  9.590162147606176E-001  9.710791537446660E-001  9.832938258221628E-001 
 9.956621395604728E-001  1.008186027533778E+000  1.020867446625057E+000  1.033708378331841E+000 
 1.046710829075835E+000  1.059876830516424E+000  1.073208439868115E+000  1.086707740221997E+000 
 1.100376840871211E+000  1.114217877640545E+000  1.128233013220156E+000  1.142424437503489E+000 
 1.156794367929465E+000  1.171345049828943E+000  1.186078756775578E+000  1.200997790941057E+000 
 1.216104483454816E+000  1.231401194768303E+000  1.246890315023774E+000  1.262574264427786E+000 
 1.278455493629344E+000  1.294536484102818E+000  1.310819748535690E+000  1.327307831221152E+000 
 1.344003308455670E+000  1.360908788941534E+000  1.378026914194457E+000  1.395360358956344E+000 
 1.412911831613197E+000  1.430684074618332E+000  1.448679864920877E+000  1.466902014399676E+000 
 1.485353370302663E+000  1.504036815691732E+000  1.522955269893240E+000  1.542111688954147E+000 
 1.561509066103901E+000  1.581150432222153E+000  1.601038856312311E+000  1.621177445981107E+000 
 1.641569347924151E+000  1.662217748417605E+000  1.683125873816060E+000  1.704296991056642E+000 
 1.725734408169495E+000  1.747441474794663E+000  1.769421582705461E+000  1.791678166338476E+000 
 1.814214703330176E+000  1.837034715060319E+000  1.860141767202171E+000  1.883539470279632E+000 
 1.907231480231418E+000  1.931221498982280E+000  1.955513275021459E+000  1.980110603988385E+000 
 2.005017329265748E+000  2.030237342580052E+000  2.055774584609680E+000  2.081633045600659E+000 
 2.107816765990132E+000  2.134329837037674E+000  2.161176401464585E+000  2.188360654101169E+000 
 2.215886842542209E+000  2.243759267810658E+000  2.271982285029662E+000  2.300560304103090E+000 
 2.329497790404556E+000  2.358799265475173E+000  2.388469307730039E+000  2.418512553173612E+000 
 2.448933696124125E+000  2.479737489947047E+000  2.510928747797839E+000  2.542512343374002E+000 
 2.574493211676595E+000  2.606876349781364E+000  2.639666817619513E+000  2.672869738768358E+000 
 2.706490301251887E+000  2.740533758351379E+000  2.775005429426277E+000  2.809910700745311E+000 
 2.845255026328144E+000  2.881043928797562E+000  2.917283000242379E+000  2.953977903091247E+000 
 2.991134370997383E+000  3.028758209734498E+000  3.066855298103945E+000  3.105431588853281E+000 
 3.144493109606430E+000  3.184045963805472E+000  3.224096331664349E+000  3.264650471134530E+000 
 3.305714718882801E+000  3.347295491281435E+000  3.389399285410700E+000  3.432032680074097E+000 
 3.475202336826286E+000  3.518915001013952E+000  3.563177502829821E+000  3.607996758379842E+000 
 3.653379770763886E+000  3.699333631169977E+000  3.745865519982285E+000  3.792982707903120E+000 
 3.840692557088941E+000  3.889002522300756E+000  3.937920152068925E+000  3.987453089872609E+000 
 4.037609075334129E+000  4.088395945428242E+000  4.139821635706734E+000  4.191894181538346E+000 
 4.244621719364289E+000  4.298012487969642E+000  4.352074829770607E+000  4.406817192118088E+000 
 4.462248128617584E+000  4.518376300465683E+000  4.575210477803447E+000  4.632759541086697E+000 
 4.691032482473664E+000  4.750038407230006E+000  4.809786535151497E+000  4.870286202004701E+000 
 4.931546860985635E+000  4.993578084196906E+000  5.056389564143356E+000  5.119991115246499E+000 
 5.184392675378112E+000  5.249604307412971E+000  5.315636200801267E+000  5.382498673160693E+000 
 5.450202171888570E+000  5.518757275794337E+000  5.588174696752435E+000  5.658465281376130E+000 
 5.729640012712288E+000  5.801710011957465E+000  5.874686540195691E+000  5.948581000157956E+000 
 6.023404938003977E+000  6.099170045126284E+000  6.175888159976989E+000  6.253571269917644E+000 
 6.332231513092203E+000  6.411881180323706E+000  6.492532717034721E+000  6.574198725191921E+000 
 6.656891965275254E+000  6.740625358271703E+000  6.825411987694289E+000  6.911265101626375E+000 
 6.998198114791654E+000  7.086224610650327E+000  7.175358343521438E+000  7.265613240732104E+000 
 7.357003404793653E+000  7.449543115605127E+000  7.543246832684639E+000  7.638129197428603E+000 
 7.734205035399556E+000  7.831489358642668E+000  7.929997368031343E+000  8.029744455642492E+000 
 8.130746207161463E+000  8.233018404317434E+000  8.336577027349302E+000  8.441438257502574E+000 
 8.547618479557837E+000  8.655134284390780E+000  8.764002471564666E+000  8.874240051955251E+000 
 8.985864250408721E+000  9.098892508433217E+000  9.213342486923978E+000  9.329232068923011E+000 
 9.446579362413303E+000  9.565402703148168E+000  9.685720657516381E+000  9.807552025443064E+000 
 9.930915843327343E+000  1.005583138701676E+001  1.018231817481914E+001  1.031039597055243E+001 
 1.044008478663277E+001  1.057140488720154E+001  1.070437679129164E+001  1.083902127603358E+001 
 1.097535937990209E+001  1.111341240600323E+001  1.125320192540322E+001  1.139474978049889E+001 