<UPF version="2.0.1">
  <PP_INFO>
    Generated using "atomic" code by A. Dal Corso  v.5.1.2
    Author: ADC
    Generation date: 30Jul2016
    Pseudopotential type: PAW
    Element: Sm
    Functional:  SLA  PW   PBX  PBC

    Suggested minimum cutoff for wavefunctions: 117. Ry
    Suggested minimum cutoff for charge density: 482. Ry
    The Pseudo was generated with a Scalar-Relativistic Calculation
    Local Potential by smoothing AE potential with Bessel fncs, cutoff radius:   1.7000
    Pseudopotential contains additional information for GIPAW reconstruction.

    Valence configuration: 
    nl pn  l   occ       Rcut    Rcut US       E pseu
    5S  1  0  2.00      1.300      1.600    -3.306153
    6S  2  0  2.00      1.300      1.600    -0.280192
    5P  2  1  6.00      1.400      1.900    -1.809413
    4D  3  2 10.00      1.050      1.300    -9.699596
    5D  4  2  0.50      1.050      1.300    -0.162775
    4F  4  3  5.50      1.100      1.300    -0.373513
    Generation configuration:
    5S  1  0  2.00      1.300      1.600    -3.306170
    6S  2  0  2.00      1.300      1.600    -0.280197
    5P  2  1  6.00      1.400      1.900    -1.809427
    6P  3  1  0.00      1.400      1.900     0.300000
    4D  3  2 10.00      1.050      1.300    -9.699670
    5D  4  2  0.50      1.050      1.300    -0.162792
    4F  4  3  5.50      1.100      1.300    -0.373563
    4F  4  3  0.00      1.100      1.300     1.000000

    Pseudization used: troullier-martins
<PP_INPUTFILE>
 &input
   title='Sm',
   zed=62.0,
   rel=1,
   config='[Xe] 4f5.5 5d0.5 6s2. 6p0.',
   iswitch=3,
   dft='PBE'
 /
 &inputp
   lpaw=.true.,
   pseudotype=3,
   file_pseudopw='Sm.pbe-spdfn-kjpaw_psl.1.0.0.UPF',
   author='ADC',
   lloc=-1,
   rcloc=1.7,
   which_augfun='PSQ',
   rmatch_augfun_nc=.true.,
   nlcc=.true.,
   new_core_ps=.true.,
   rcore=1.2,
   tm=.true.
 /
8
5S  1  0  2.00  0.00  1.30  1.60  0.0
6S  2  0  2.00  0.00  1.30  1.60  0.0
5P  2  1  6.00  0.00  1.40  1.90  0.0
6P  3  1  0.00  0.30  1.40  1.90  0.0
4D  3  2 10.00  0.00  1.05  1.30  0.0
5D  4  2  0.50  0.00  1.05  1.30  0.0
4F  4  3  5.50  0.00  1.10  1.30  0.0
4F  4  3  0.00  1.00  1.10  1.30  0.0
</PP_INPUTFILE>
  </PP_INFO>
  <!--                               -->
  <!-- END OF HUMAN READABLE SECTION -->
  <!--                               -->
  <PP_HEADER generated='Generated using "atomic" code by A. Dal Corso  v.5.1.2'
             author="ADC"
             date="30Jul2016"
             comment=""
             element="Sm"
             pseudo_type="PAW"
             relativistic="scalar"
             is_ultrasoft="T"
             is_paw="T"
             is_coulomb="F"
             has_so="F"
             has_wfc="T"
             has_gipaw="T"
             paw_as_gipaw="T"
             core_correction="T"
             functional=" SLA  PW   PBX  PBC"
             z_valence="2.600000000000000E+001"
             total_psenergy="-1.043541670014382E+003"
             wfc_cutoff="1.167637553598507E+002"
             rho_cutoff="4.819547375273453E+002"
             l_max="3"
             l_max_rho="6"
             l_local="-1"
             mesh_size="1259"
             number_of_wfc="6"
             number_of_proj="8"/>
  <PP_MESH dx="1.250000000000000E-002" mesh="1259" xmin="-7.000000000000000E+000" rmax="1.000000000000000E+002"
zmesh="6.200000000000000E+001">
    <PP_R type="real" size="1259" columns="4">
 1.470777363797607E-005  1.489277465595197E-005  1.508010270026745E-005  1.526978704131055E-005 
 1.546185731764548E-005  1.565634354064369E-005  1.585327609917320E-005  1.605268576434695E-005 
 1.625460369433081E-005  1.645906143921217E-005  1.666609094592963E-005  1.687572456326482E-005 
 1.708799504689694E-005  1.730293556452092E-005  1.752057970102997E-005  1.774096146376320E-005 
 1.796411528781941E-005  1.819007604143762E-005  1.841887903144528E-005  1.865056000877512E-005 
 1.888515517405120E-005  1.912270118324537E-005  1.936323515340485E-005  1.960679466845185E-005 
 1.985341778505614E-005  2.010314303858144E-005  2.035600944910668E-005  2.061205652752297E-005 
 2.087132428170723E-005  2.113385322277355E-005  2.139968437140309E-005  2.166885926425366E-005 
 2.194141996044990E-005  2.221740904815511E-005  2.249686965122579E-005  2.277984543594970E-005 
 2.306638061786894E-005  2.335651996868864E-005  2.365030882327263E-005  2.394779308672721E-005 
 2.424901924157375E-005  2.455403435501180E-005  2.486288608627339E-005  2.517562269406988E-005 
 2.549229304413253E-005  2.581294661684781E-005  2.613763351498882E-005  2.646640447154397E-005 
 2.679931085764409E-005  2.713640469058937E-005  2.747773864197700E-005  2.782336604593133E-005 
 2.817334090743741E-005  2.852771791077937E-005  2.888655242808500E-005  2.924990052797766E-005 
 2.961781898433721E-005  2.999036528517098E-005  3.036759764159641E-005  3.074957499693671E-005 
 3.113635703593080E-005  3.152800419405915E-005  3.192457766698704E-005  3.232613942012644E-005 
 3.273275219831829E-005  3.314447953563643E-005  3.356138576531499E-005  3.398353602980055E-005 
 3.441099629093077E-005  3.484383334024120E-005  3.528211480940137E-005  3.572590918078253E-005 
 3.617528579815812E-005  3.663031487753882E-005  3.709106751814413E-005  3.755761571351151E-005 
 3.803003236274569E-005  3.850839128190925E-005  3.899276721555651E-005  3.948323584841263E-005 
 3.997987381719933E-005  4.048275872260965E-005  4.099196914143320E-005  4.150758463883387E-005 
 4.202968578078223E-005  4.255835414664390E-005  4.309367234192662E-005  4.363572401118753E-005 
 4.418459385110271E-005  4.474036762370143E-005  4.530313216976633E-005  4.587297542240270E-005 
 4.644998642077811E-005  4.703425532403496E-005  4.762587342537817E-005  4.822493316633968E-005 
 4.883152815122283E-005  4.944575316172811E-005  5.006770417176304E-005  5.069747836243839E-005 
 5.133517413725269E-005  5.198089113746817E-005  5.263473025767981E-005  5.329679366158036E-005 
 5.396718479792374E-005  5.464600841668890E-005  5.533337058544733E-005  5.602937870593635E-005 
 5.673414153084078E-005  5.744776918078596E-005  5.817037316154404E-005  5.890206638145715E-005 
 5.964296316907955E-005  6.039317929104162E-005  6.115283197013883E-005  6.192203990364780E-005 
 6.270092328187307E-005  6.348960380692715E-005  6.428820471174662E-005  6.509685077934772E-005 
 6.591566836232365E-005  6.674478540258769E-005  6.758433145136418E-005  6.843443768943129E-005 
 6.929523694761838E-005  7.016686372756079E-005  7.104945422271623E-005  7.194314633964519E-005 
 7.284807971955912E-005  7.376439576013989E-005  7.469223763763300E-005  7.563175032921953E-005 
 7.658308063566899E-005  7.754637720427719E-005  7.852179055209295E-005  7.950947308943632E-005 
 8.050957914371318E-005  8.152226498352926E-005  8.254768884310728E-005  8.358601094701168E-005 
 8.463739353518362E-005  8.570200088829154E-005  8.677999935340033E-005  8.787155736996331E-005 
 8.897684549614148E-005  9.009603643545322E-005  9.122930506375981E-005  9.237682845659008E-005 
 9.353878591680873E-005  9.471535900263310E-005  9.590673155600151E-005  9.711308973129934E-005 
 9.833462202444577E-005  9.957151930234680E-005  1.008239748327187E-004  1.020921843142862E-004 
 1.033763459073610E-004  1.046766602648046E-004  1.059933305633809E-004  1.073265625355028E-004 
 1.086765645013785E-004  1.100435474015617E-004  1.114277248299118E-004  1.128293130669679E-004 
 1.142485311137440E-004  1.156856007259468E-004  1.171407464486273E-004  1.186141956512651E-004 
 1.201061785632958E-004  1.216169283100851E-004  1.231466809493542E-004  1.246956755080657E-004 
 1.262641540197706E-004  1.278523615624273E-004  1.294605462966961E-004  1.310889595047131E-004 
 1.327378556293553E-004  1.344074923139969E-004  1.360981304427666E-004  1.378100341813120E-004 
 1.395434710180748E-004  1.412987118060876E-004  1.430760308052945E-004  1.448757057254051E-004 
 1.466980177692875E-004  1.485432516769055E-004  1.504116957698117E-004  1.523036419961970E-004 
 1.542193859765081E-004  1.561592270496402E-004  1.581234683197069E-004  1.601124167034034E-004 
 1.621263829779611E-004  1.641656818297075E-004  1.662306319032379E-004  1.683215558512017E-004 
 1.704387803847202E-004  1.725826363244343E-004  1.747534586521960E-004  1.769515865634111E-004 
 1.791773635200372E-004  1.814311373042526E-004  1.837132600727964E-004  1.860240884119939E-004 
 1.883639833934750E-004  1.907333106305906E-004  1.931324403355423E-004  1.955617473772274E-004 
 1.980216113398135E-004  2.005124165820499E-004  2.030345522973226E-004  2.055884125744688E-004 
 2.081743964593528E-004  2.107929080172174E-004  2.134443563958216E-004  2.161291558893682E-004 
 2.188477260032409E-004  2.216004915195507E-004  2.243878825635100E-004  2.272103346706409E-004 
 2.300682888548267E-004  2.329621916772239E-004  2.358924953160359E-004  2.388596576371677E-004 
 2.418641422657696E-004  2.449064186586765E-004  2.479869621777650E-004  2.511062541642273E-004 
 2.542647820137820E-004  2.574630392528326E-004  2.607015256155786E-004  2.639807471221037E-004 
 2.673012161574396E-004  2.706634515516284E-004  2.740679786607917E-004  2.775153294492158E-004 
 2.810060425724760E-004  2.845406634615994E-004  2.881197444082909E-004  2.917438446512309E-004 
 2.954135304634545E-004  2.991293752408369E-004  3.028919595916840E-004  3.067018714274557E-004 
 3.105597060546279E-004  3.144660662677096E-004  3.184215624434319E-004  3.224268126361199E-004 
 3.264824426742644E-004  3.305890862583106E-004  3.347473850596733E-004  3.389579888210005E-004 
 3.432215554576964E-004  3.475387511607221E-004  3.519102505006899E-004  3.563367365332652E-004 
 3.608189009058968E-004  3.653574439658866E-004  3.699530748698215E-004  3.746065116943803E-004 
 3.793184815485340E-004  3.840897206871594E-004  3.889209746260786E-004  3.938129982585490E-004 
 3.987665559732161E-004  4.037824217735508E-004  4.088613793987895E-004  4.140042224463941E-004 
 4.192117544960540E-004  4.244847892352470E-004  4.298241505863788E-004  4.352306728355239E-004 
 4.407052007627834E-004  4.462485897742835E-004  4.518617060358358E-004  4.575454266082758E-004 
 4.633006395845070E-004  4.691282442282657E-004  4.750291511146337E-004  4.810042822723179E-004 
 4.870545713277178E-004  4.931809636508080E-004  4.993844165028531E-004  5.056658991859821E-004 
 5.120263931946444E-004  5.184668923689688E-004  5.249884030500553E-004  5.315919442372155E-004 
 5.382785477471948E-004  5.450492583753961E-004  5.519051340591296E-004  5.588472460429198E-004 
 5.658766790458878E-004  5.729945314312414E-004  5.802019153778979E-004  5.874999570542618E-004 
 5.948897967941938E-004  6.023725892751875E-004  6.099495036987917E-004  6.176217239733010E-004 
 6.253904488987420E-004  6.332568923541906E-004  6.412222834874407E-004  6.492878669070621E-004 
 6.574549028768746E-004  6.657246675128637E-004  6.740984529825793E-004  6.825775677070374E-004 
 6.911633365651643E-004  6.998571011008125E-004  7.086602197323778E-004  7.175740679650568E-004 
 7.266000386057713E-004  7.357395419807968E-004  7.449940061561310E-004  7.543648771606287E-004 
 7.638536192119505E-004  7.734617149453463E-004  7.831906656453222E-004  7.930419914802191E-004 
 8.030172317397411E-004  8.131179450754739E-004  8.233457097444261E-004  8.337021238556357E-004 
 8.441888056198771E-004  8.548073936025130E-004  8.655595469795183E-004  8.764469457967337E-004 
 8.874712912323752E-004  8.986343058628451E-004  9.099377339318928E-004  9.213833416231499E-004 
 9.329729173361046E-004  9.447082719655413E-004  9.565912391844955E-004  9.686236757307733E-004 
 9.808074616970640E-004  9.931445008247136E-004  1.005636720801185E-003  1.018286073561264E-003 
 1.031094535592058E-003  1.044064108241815E-003  1.057196818032651E-003  1.070494716977188E-003 
 1.083959882899190E-003  1.097594419758229E-003  1.111400457978429E-003  1.125380154781349E-003 
 1.139535694523059E-003  1.153869289035439E-003  1.168383177971798E-003  1.183079629156809E-003 
 1.197960938940869E-003  1.213029432558910E-003  1.228287464493715E-003  1.243737418843818E-003 
 1.259381709696019E-003  1.275222781502592E-003  1.291263109463235E-003  1.307505199911826E-003 
 1.323951590708045E-003  1.340604851633912E-003  1.357467584795329E-003  1.374542425028659E-003 
 1.391832040312427E-003  1.409339132184200E-003  1.427066436162699E-003  1.445016722175237E-003 
 1.463192794990525E-003  1.481597494656918E-003  1.500233696946185E-003  1.519104313802850E-003 
 1.538212293799188E-003  1.557560622595949E-003  1.577152323408872E-003  1.596990457481069E-003 
 1.617078124561351E-003  1.637418463388566E-003  1.658014652182039E-003  1.678869909138172E-003 
 1.699987492933296E-003  1.721370703232842E-003  1.743022881206924E-003  1.764947410052403E-003 
 1.787147715521516E-003  1.809627266457157E-003  1.832389575334900E-003  1.855438198811813E-003 
 1.878776738282210E-003  1.902408840440364E-003  1.926338197850317E-003  1.950568549522850E-003 
 1.975103681499709E-003  1.999947427445182E-003  2.025103669245118E-003  2.050576337613477E-003 
 2.076369412706520E-003  2.102486924744705E-003  2.128932954642424E-003  2.155711634645654E-003 
 2.182827148977624E-003  2.210283734492621E-003  2.238085681337989E-003  2.266237333624487E-003 
 2.294743090105059E-003  2.323607404862150E-003  2.352834788003668E-003  2.382429806367691E-003 
 2.412397084236050E-003  2.442741304056882E-003  2.473467207176266E-003  2.504579594579081E-003 
 2.536083327639156E-003  2.567983328878877E-003  2.600284582738337E-003  2.632992136354168E-003 
 2.666111100348170E-003  2.699646649625848E-003  2.733604024185003E-003  2.767988529934498E-003 
 2.802805539523309E-003  2.838060493180024E-003  2.873758899562879E-003  2.909906336620498E-003 
 2.946508452463464E-003  2.983570966246843E-003  3.021099669063823E-003  3.059100424850570E-003 
 3.097579171302487E-003  3.136541920801995E-003  3.175994761357969E-003  3.215943857557019E-003 
 3.256395451526701E-003  3.297355863910873E-003  3.338831494857303E-003  3.380828825017707E-003 
 3.423354416560373E-003  3.466414914195495E-003  3.510017046213436E-003  3.554167625536032E-003 
 3.598873550781126E-003  3.644141807340498E-003  3.689979468471331E-003  3.736393696401434E-003 
 3.783391743448352E-003  3.830980953152551E-003  3.879168761424874E-003  3.927962697708400E-003 
 3.977370386154945E-003  4.027399546816350E-003  4.078057996850749E-003  4.129353651744033E-003 
 4.181294526546639E-003  4.233888737125926E-003  4.287144501434303E-003  4.341070140793288E-003 
 4.395674081193753E-003  4.450964854612471E-003  4.506951100345281E-003  4.563641566356985E-003 
 4.621045110648227E-003  4.679170702639603E-003  4.738027424573112E-003  4.797624472931302E-003 
 4.857971159874231E-003  4.919076914694505E-003  4.980951285290643E-003  5.043603939658934E-003 
 5.107044667404087E-003  5.171283381268885E-003  5.236330118683060E-003  5.302195043331680E-003 
 5.368888446743220E-003  5.436420749897653E-003  5.504802504854741E-003  5.574044396402815E-003 
 5.644157243728314E-003  5.715152002106271E-003  5.787039764612125E-003  5.859831763855024E-003 
 5.933539373732941E-003  6.008174111209887E-003  6.083747638115437E-003  6.160271762966922E-003 
 6.237758442814541E-003  6.316219785109661E-003  6.395668049596660E-003  6.476115650228496E-003 
 6.557575157106441E-003  6.640059298444173E-003  6.723580962556587E-003  6.808153199873638E-003 
 6.893789224979465E-003  6.980502418677218E-003  7.068306330079831E-003  7.157214678727095E-003 
 7.247241356729382E-003  7.338400430938285E-003  7.430706145144615E-003  7.524172922304011E-003 
 7.618815366790560E-003  7.714648266678776E-003  7.811686596054236E-003  7.909945517353328E-003 
 8.009440383732417E-003  8.110186741466789E-003  8.212200332379828E-003  8.315497096302650E-003 
 8.420093173564781E-003  8.526004907516092E-003  8.633248847080489E-003  8.741841749341729E-003 
 8.851800582161720E-003  8.963142526831801E-003  9.075884980757357E-003  9.190045560176177E-003 
 9.305642102911077E-003  9.422692671157033E-003  9.541215554303475E-003  9.661229271792028E-003 
 9.782752576010216E-003  9.905804455221580E-003  1.003040413653259E-002  1.015657108889694E-002 
 1.028432502615764E-002  1.041368591012729E-002  1.054467395370722E-002  1.067730962404571E-002 
 1.081161364573612E-002  1.094760700405508E-002  1.108531094824149E-002  1.122474699481681E-002 
 1.136593693094699E-002  1.150890281784682E-002  1.165366699422698E-002  1.180025207978454E-002 
 1.194868097873739E-002  1.209897688340294E-002  1.225116327782208E-002  1.240526394142857E-002 
 1.256130295276459E-002  1.271930469324317E-002  1.287929385095770E-002  1.304129542453956E-002 
 1.320533472706423E-002  1.337143739000646E-002  1.353962936724528E-002  1.370993693911933E-002 
 1.388238671653320E-002  1.405700564511546E-002  1.423382100942896E-002  1.441286043723413E-002 
 1.459415190380580E-002  1.477772373630449E-002  1.496360461820248E-002  1.515182359376574E-002 
 1.534241007259216E-002  1.553539383420681E-002  1.573080503271505E-002  1.592867420151423E-002 
 1.612903225806452E-002  1.633191050871991E-002  1.653734065361983E-002  1.674535479164235E-002 
 1.695598542541975E-002  1.716926546641709E-002  1.738522824007471E-002  1.760390749101536E-002 
 1.782533738831691E-002  1.804955253085131E-002  1.827658795269075E-002  1.850647912858181E-002 
 1.873926197948845E-002  1.897497287820470E-002  1.921364865503805E-002  1.945532660356420E-002 
 1.970004448645436E-002  1.994784054137557E-002  2.019875348696556E-002  2.045282252888259E-002 
 2.071008736593131E-002  2.097058819626599E-002  2.123436572367132E-002  2.150146116392264E-002 
 2.177191625122587E-002  2.204577324473865E-002  2.232307493517341E-002  2.260386465148345E-002 
 2.288818626763319E-002  2.317608420945363E-002  2.346760346158389E-002  2.376278957450026E-002 
 2.406168867163340E-002  2.436434745657538E-002  2.467081322037709E-002  2.498113384893763E-002 
 2.529535783048660E-002  2.561353426316039E-002  2.593571286267393E-002  2.626194397008889E-002 
 2.659227855967949E-002  2.692676824689747E-002  2.726546529643696E-002  2.760842263040105E-002 
 2.795569383657091E-002  2.830733317677901E-002  2.866339559538772E-002  2.902393672787434E-002 
 2.938901290952435E-002  2.975868118423389E-002  3.013299931342294E-002  3.051202578506081E-002 
 3.089581982280478E-002  3.128444139525412E-002  3.167795122532014E-002  3.207641079971438E-002 
 3.247988237855608E-002  3.288842900510026E-002  3.330211451558851E-002  3.372100354922350E-002 
 3.414516155826895E-002  3.457465481827677E-002  3.500955043844263E-002  3.544991637209199E-002 
 3.589582142729789E-002  3.634733527763240E-002  3.680452847305329E-002  3.726747245092749E-002 
 3.773623954719342E-002  3.821090300766358E-002  3.869153699946933E-002  3.917821662264982E-002 
 3.967101792188630E-002  4.017001789838439E-002  4.067529452190564E-002  4.118692674295043E-002 
 4.170499450509430E-002  4.222957875747906E-002  4.276076146746142E-002  4.329862563342052E-002 
 4.384325529772654E-002  4.439473555987269E-002  4.495315258977180E-002  4.551859364122096E-002 
 4.609114706553493E-002  4.667090232535099E-002  4.725795000860814E-002  4.785238184270110E-002 
 4.845429070881342E-002  4.906377065643009E-002  4.968091691803276E-002  5.030582592398057E-002 
 5.093859531757692E-002  5.157932397032701E-002  5.222811199738650E-002  5.288506077320441E-002 
 5.355027294736373E-002  5.422385246061984E-002  5.490590456114222E-002  5.559653582095931E-002 
 5.629585415261035E-002  5.700396882600763E-002  5.772099048550936E-002  5.844703116720872E-002 
 5.918220431643946E-002  5.992662480550168E-002  6.068040895161152E-002  6.144367453507520E-002 
 6.221654081769312E-002  6.299912856139443E-002  6.379156004710608E-002  6.459395909386015E-002 
 6.540645107813994E-002  6.622916295347114E-002  6.706222327025824E-002  6.790576219587033E-002 
 6.875991153498100E-002  6.962480475016201E-002  7.050057698273801E-002  7.138736507390223E-002 
 7.228530758609782E-002  7.319454482466947E-002  7.411521885978532E-002  7.504747354863658E-002 
 7.599145455791524E-002  7.694730938657424E-002  7.791518738887554E-002  7.889523979772591E-002 
 7.988761974830828E-002  8.089248230200907E-002  8.190998447064647E-002  8.294028524100470E-002 
 8.398354559967501E-002  8.503992855821113E-002  8.610959917859967E-002  8.719272459905107E-002 
 8.828947406011621E-002  8.940001893112942E-002  9.052453273698637E-002  9.166319118525722E-002 
 9.281617219364081E-002  9.398365591776579E-002  9.516582477933901E-002  9.636286349465036E-002 
 9.757495910343468E-002  9.880230099809656E-002  1.000450809533044E-001  1.013034931559543E-001 
 1.025777342355134E-001  1.038680032947430E-001  1.051745019408083E-001  1.064974343167812E-001 
 1.078370071335367E-001  1.091934297020528E-001  1.105669139661159E-001  1.119576745354361E-001 
 1.133659287191823E-001  1.147918965599354E-001  1.162358008680720E-001  1.176978672565780E-001 
 1.191783241763008E-001  1.206774029516465E-001  1.221953378167234E-001  1.237323659519424E-001 
 1.252887275210771E-001  1.268646657087886E-001  1.284604267586255E-001  1.300762600114980E-001 
 1.317124179446394E-001  1.333691562110560E-001  1.350467336794720E-001  1.367454124747803E-001 
 1.384654580189983E-001  1.402071390727420E-001  1.419707277772196E-001  1.437564996967538E-001 
 1.455647338618408E-001  1.473957128127472E-001  1.492497226436595E-001  1.511270530473861E-001 
 1.530279973606214E-001  1.549528526097824E-001  1.569019195574175E-001  1.588755027492029E-001 
 1.608739105615279E-001  1.628974552496783E-001  1.649464529966292E-001  1.670212239624467E-001 
 1.691220923343157E-001  1.712493863771937E-001  1.734034384851025E-001  1.755845852330669E-001 
 1.777931674297033E-001  1.800295301704736E-001  1.822940228916063E-001  1.845869994246955E-001 
 1.869088180519904E-001  1.892598415623744E-001  1.916404373080548E-001  1.940509772619603E-001 
 1.964918380758625E-001  1.989634011392301E-001  2.014660526388196E-001  2.040001836190197E-001 
 2.065661900429523E-001  2.091644728543409E-001  2.117954380401618E-001  2.144594966940772E-001 
 2.171570650806727E-001  2.198885647004962E-001  2.226544223559209E-001  2.254550702178330E-001 
 2.282909458931582E-001  2.311624924932411E-001  2.340701587030794E-001  2.370143988514345E-001 
 2.399956729818201E-001  2.430144469243837E-001  2.460711923686965E-001  2.491663869374520E-001 
 2.523005142610996E-001  2.554740640534102E-001  2.586875321879948E-001  2.619414207757880E-001 
 2.652362382435010E-001  2.685724994130668E-001  2.719507255820814E-001  2.753714446052558E-001 
 2.788351909768978E-001  2.823425059144241E-001  2.858939374429297E-001  2.894900404808171E-001 
 2.931313769265011E-001  2.968185157462108E-001  3.005520330628874E-001  3.043325122462078E-001 
 3.081605440037366E-001  3.120367264732228E-001  3.159616653160648E-001  3.199359738119408E-001 
 3.239602729546398E-001  3.280351915490908E-001  3.321613663096135E-001  3.363394419594102E-001 
 3.405700713313004E-001  3.448539154697313E-001  3.491916437340657E-001  3.535839339031689E-001 
 3.580314722813172E-001  3.625349538054294E-001  3.670950821536569E-001  3.717125698553322E-001 
 3.763881384023020E-001  3.811225183616653E-001  3.859164494899218E-001  3.907706808485642E-001 
 3.956859709211190E-001  4.006630877316588E-001  4.057028089648129E-001  4.108059220872757E-001 
 4.159732244708558E-001  4.212055235170644E-001  4.265036367832710E-001  4.318683921104541E-001 
 4.373006277525469E-001  4.428011925074209E-001  4.483709458495111E-001  4.540107580641073E-001 
 4.597215103833439E-001  4.655040951238877E-001  4.713594158263700E-001  4.772883873965642E-001 
 4.832919362483391E-001  4.893710004484187E-001  4.955265298629505E-001  5.017594863059300E-001 
 5.080708436894833E-001  5.144615881760404E-001  5.209327183324310E-001  5.274852452859060E-001 
 5.341201928821341E-001  5.408385978451768E-001  5.476415099394767E-001  5.545299921338908E-001 
 5.615051207677750E-001  5.685679857191700E-001  5.757196905750953E-001  5.829613528039829E-001 
 5.902941039302909E-001  5.977190897112999E-001  6.052374703161452E-001  6.128504205070936E-001 
 6.205591298230990E-001  6.283648027656777E-001  6.362686589871057E-001  6.442719334809989E-001 
 6.523758767752812E-001  6.605817551275774E-001  6.688908507230776E-001  6.773044618748711E-001 
 6.858239032268191E-001  6.944505059589672E-001  7.031856179955405E-001  7.120306042155692E-001 
 7.209868466661429E-001  7.300557447783672E-001  7.392387155860244E-001  7.485371939469835E-001 
 7.579526327674089E-001  7.674865032287694E-001  7.771402950177229E-001  7.869155165588784E-001 
 7.968136952504870E-001  8.068363777031099E-001  8.169851299812688E-001  8.272615378481565E-001 
 8.376672070134111E-001  8.482037633840073E-001  8.588728533183176E-001  8.696761438833478E-001 
 8.806153231152296E-001  8.916921002829755E-001  9.029082061555509E-001  9.142653932723205E-001 
 9.257654362168748E-001  9.374101318943223E-001  9.492012998120558E-001  9.611407823640482E-001 
 9.732304451187429E-001  9.854721771105382E-001  9.978678911349659E-001  1.010419524047563E+000 
 1.023129037066506E+000  1.035998416079064E+000  1.049029671951887E+000  1.062224840845221E+000 
 1.075585984531052E+000  1.089115190715261E+000  1.102814573363842E+000  1.116686273033204E+000 
 1.130732457204643E+000  1.144955320623015E+000  1.159357085639662E+000  1.173940002559673E+000 
 1.188706349993481E+000  1.203658435212918E+000  1.218798594511721E+000  1.234129193570579E+000 
 1.249652627826790E+000  1.265371322848535E+000  1.281287734713892E+000  1.297404350394602E+000 
 1.313723688144647E+000  1.330248297893760E+000  1.346980761645827E+000  1.363923693882355E+000 
 1.381079741970978E+000  1.398451586579111E+000  1.416041942092821E+000  1.433853557040941E+000 
 1.451889214524545E+000  1.470151732651814E+000  1.488643964978353E+000  1.507368800953093E+000 
 1.526329166369744E+000  1.545528023823982E+000  1.564968373176346E+000  1.584653252020969E+000 
 1.604585736160225E+000  1.624768940085308E+000  1.645206017462898E+000  1.665900161627917E+000 
 1.686854606082487E+000  1.708072625001194E+000  1.729557533742654E+000  1.751312689367574E+000 
 1.773341491163284E+000  1.795647381174877E+000  1.818233844743054E+000  1.841104411048694E+000 
 1.864262653664317E+000  1.887712191112450E+000  1.911456687431021E+000  1.935499852745896E+000 
 1.959845443850564E+000  1.984497264793170E+000  2.009459167470895E+000  2.034735052231809E+000 
 2.060328868484339E+000  2.086244615314338E+000  2.112486342109977E+000  2.139058149194462E+000 
 2.165964188466702E+000  2.193208664050082E+000  2.220795832949334E+000  2.248730005715728E+000 
 2.277015547120597E+000  2.305656876837323E+000  2.334658470131954E+000  2.364024858562439E+000 
 2.393760630686719E+000  2.423870432779693E+000  2.454358969559187E+000  2.485231004921112E+000 
 2.516491362683792E+000  2.548144927341733E+000  2.580196644828817E+000  2.612651523291103E+000 
 2.645514633869387E+000  2.678791111491550E+000  2.712486155674926E+000  2.746605031338728E+000 
 2.781153069626683E+000  2.816135668740072E+000  2.851558294781169E+000  2.887426482607366E+000 
 2.923745836695990E+000  2.960522032020000E+000  2.997760814934747E+000  3.035468004075814E+000 
 3.073649491268226E+000  3.112311242447042E+000  3.151459298589531E+000  3.191099776659125E+000 
 3.231238870561159E+000  3.271882852110724E+000  3.313038072012635E+000  3.354710960853720E+000 
 3.396908030107657E+000  3.439635873152356E+000  3.482901166300227E+000  3.526710669841358E+000 
 3.571071229099793E+000  3.615989775503182E+000  3.661473327665776E+000  3.707528992485142E+000 
 3.754163966252618E+000  3.801385535777720E+000  3.849201079526772E+000  3.897618068775754E+000 
 3.946644068777748E+000  3.996286739945005E+000  4.046553839045880E+000  4.097453220416892E+000 
 4.148992837189919E+000  4.201180742534948E+000  4.254025090918375E+000  4.307534139377132E+000 
 4.361716248808920E+000  4.416579885278558E+000  4.472133621340871E+000  4.528386137380154E+000 
 4.585346222966467E+000  4.643022778229087E+000  4.701424815247099E+000  4.760561459457618E+000 
 4.820441951081622E+000  4.881075646567740E+000  4.942472020054267E+000  5.004640664849458E+000 
 5.067591294930552E+000  5.131333746461582E+000  5.195877979330267E+000  5.261234078704327E+000 
 5.327412256607240E+000  5.394422853513952E+000  5.462276339966573E+000  5.530983318210393E+000 
 5.600554523850566E+000  5.671000827529497E+000  5.742333236625469E+000  5.814562896972544E+000 
 5.887701094602079E+000  5.961759257506278E+000  6.036748957423745E+000  6.112681911647670E+000 
 6.189569984856649E+000  6.267425190968529E+000  6.346259695017685E+000  6.426085815055741E+000 
 6.506916024076372E+000  6.588762951964203E+000  6.671639387468207E+000  6.755558280200069E+000 
 6.840532742657493E+000  6.926576052273128E+000  7.013701653489171E+000  7.101923159858047E+000 
 7.191254356169638E+000  7.281709200605089E+000  7.373301826917887E+000  7.466046546642251E+000 
 7.559957851329306E+000  7.655050414811499E+000  7.751339095495313E+000  7.848838938683020E+000 
 7.947565178923496E+000  8.047533242392614E+000  8.148758749303701E+000  8.251257516348133E+000 
 8.355045559166806E+000  8.460139094852588E+000  8.566554544484212E+000  8.674308535692216E+000 
 8.783417905256927E+000  8.893899701739334E+000  9.005771188144935E+000  9.119049844621051E+000 
 9.233753371188255E+000  9.349899690505911E+000  9.467506950672723E+000  9.586593528062391E+000 
 9.707178030194875E+000  9.829279298644002E+000  9.952916411981349E+000  1.007810868875743E+001 
 1.020487569052023E+001  1.033323722487163E+001  1.046321334856257E+001  1.059482437062677E+001 
 1.072809085555422E+001  1.086303362650435E+001  1.099967376855960E+001  1.113803263202023E+001 
 1.127813183574009E+001  1.141999327050483E+001  1.156363910245226E+001  1.170909177653583E+001 
 1.185637402003184E+001  1.200550884609044E+001  1.215651955733163E+001  1.230942974948632E+001 
 1.246426331508306E+001  1.262104444718156E+001  1.277979764315261E+001  1.294054770850611E+001 