<UPF version="2.0.1">
  <PP_INFO>
    Generated using "atomic" code by A. Dal Corso  v.5.1.2
    Author: ADC
    Generation date: 30Jul2016
    Pseudopotential type: USPP
    Element: Ta
    Functional: PBE

    Suggested minimum cutoff for wavefunctions:  51. Ry
    Suggested minimum cutoff for charge density: 530. Ry
    The Pseudo was generated with a Scalar-Relativistic Calculation
    Local Potential by smoothing AE potential with Bessel fncs, cutoff radius:   1.5000
    Pseudopotential contains additional information for GIPAW reconstruction.

    Valence configuration: 
    nl pn  l   occ       Rcut    Rcut US       E pseu
    5S  1  0  2.00      1.000      1.300    -5.365486
    6S  2  0  2.00      1.000      1.300    -0.399979
    5P  2  1  6.00      1.100      1.300    -2.895700
    5D  3  2  3.00      1.400      1.800    -0.263878
    4F  4  3 14.00      1.100      1.800    -1.815634
    Generation configuration:
    5S  1  0  2.00      1.000      1.300    -5.365555
    6S  2  0  2.00      1.000      1.300    -0.399996
    5P  2  1  6.00      1.100      1.300    -2.895742
    6P  3  1  0.00      1.100      1.300    -2.400000
    5D  3  2  3.00      1.400      1.800    -0.263901
    5D  3  2  0.00      1.400      1.800     0.050000
    4F  4  3 14.00      1.100      1.800    -1.815744
    4F  4  3  0.00      1.100      1.800     1.000000

    Pseudization used: troullier-martins
<PP_INPUTFILE>
 &input
   title='Ta',
   zed=73.,
   rel=1,
   config='[Xe] 4f14 6s2 6p0 5d3',
   iswitch=3,
   dft='PBE'
 /
 &inputp
   lpaw=.false.,
   pseudotype=3,
   file_pseudopw='Ta.pbe-spfn-rrkjus_psl.1.0.0.UPF',
   author='ADC',
   lloc=-1,
   rcloc=1.5,
   which_augfun='PSQ',
   rmatch_augfun_nc=.true.,
   nlcc=.true.,
   new_core_ps=.true.,
   rcore=1.2,
   tm=.true.
 /
8
5S  1  0  2.00  0.00  1.00  1.30  0.0
6S  2  0  2.00  0.00  1.00  1.30  0.0
5P  2  1  6.00  0.00  1.10  1.30  0.0
6P  3  1  0.00 -2.40  1.10  1.30  0.0
5D  3  2  3.00  0.00  1.40  1.80  0.0
5D  3  2  0.00  0.05  1.40  1.80  0.0
4F  4  3 14.00  0.00  1.10  1.80  0.0
4F  4  3  0.00  1.00  1.10  1.80  0.0
</PP_INPUTFILE>
  </PP_INFO>
  <!--                               -->
  <!-- END OF HUMAN READABLE SECTION -->
  <!--                               -->
  <PP_HEADER generated='Generated using "atomic" code by A. Dal Corso  v.5.1.2'
             author="ADC"
             date="30Jul2016"
             comment=""
             element="Ta"
             pseudo_type="USPP"
             relativistic="scalar"
             is_ultrasoft="T"
             is_paw="F"
             is_coulomb="F"
             has_so="F"
             has_wfc="F"
             has_gipaw="T"
             paw_as_gipaw="F"
             core_correction="T"
             functional="PBE"
             z_valence="2.700000000000000E+001"
             total_psenergy="-6.798029862158573E+002"
             wfc_cutoff="5.132981805258212E+001"
             rho_cutoff="5.300655532681830E+002"
             l_max="3"
             l_max_rho="6"
             l_local="-1"
             mesh_size="1273"
             number_of_wfc="5"
             number_of_proj="8"/>
  <PP_MESH dx="1.250000000000000E-002" mesh="1273" xmin="-7.000000000000000E+000" rmax="1.000000000000000E+002"
zmesh="7.300000000000000E+001">
    <PP_R type="real" size="1273" columns="4">
 1.249153377471940E-005  1.264865792697291E-005  1.280775845776140E-005  1.296886022686649E-005 
 1.313198840676740E-005  1.329716848657409E-005  1.346442627601012E-005  1.363378790944536E-005 
 1.380527984997960E-005  1.397892889357746E-005  1.415476217325530E-005  1.433280716332080E-005 
 1.451309168366589E-005  1.469564390411366E-005  1.488049234881997E-005  1.506766590073039E-005 
 1.525719380609319E-005  1.544910567902921E-005  1.564343150615901E-005  1.584020165128846E-005 
 1.603944686015307E-005  1.624119826522209E-005  1.644548739056302E-005  1.665234615676733E-005 
 1.686180688593810E-005  1.707390230674040E-005  1.728866555951527E-005  1.750613020145787E-005 
 1.772633021186093E-005  1.794929999742411E-005  1.817507439763002E-005  1.840368869018804E-005 
 1.863517859654649E-005  1.886958028747421E-005  1.910693038871231E-005  1.934726598669701E-005 
 1.959062463435444E-005  1.983704435696843E-005  2.008656365812196E-005  2.033922152571352E-005 
 2.059505743804894E-005  2.085411137001002E-005  2.111642379930069E-005  2.138203571277167E-005 
 2.165098861282489E-005  2.192332452389814E-005  2.219908599903160E-005  2.247831612651680E-005 
 2.276105853662923E-005  2.304735740844577E-005  2.333725747674759E-005  2.363080403901017E-005 
 2.392804296248109E-005  2.422902069134686E-005  2.453378425399000E-005  2.484238127033719E-005 
 2.515485995930010E-005  2.547126914630960E-005  2.579165827094490E-005  2.611607739465858E-005 
 2.644457720859876E-005  2.677720904152969E-005  2.711402486785201E-005  2.745507731572382E-005 
 2.780041967528403E-005  2.815010590697889E-005  2.850419064999355E-005  2.886272923078951E-005 
 2.922577767174943E-005  2.959339269993089E-005  2.996563175592993E-005  3.034255300285640E-005 
 3.072421533542196E-005  3.111067838914256E-005  3.150200254965666E-005  3.189824896216046E-005 
 3.229947954096209E-005  3.270575697915580E-005  3.311714475841785E-005  3.353370715892580E-005 
 3.395550926940217E-005  3.438261699728491E-005  3.481509707902545E-005  3.525301709051644E-005 
 3.569644545765066E-005  3.614545146701263E-005  3.660010527670480E-005  3.706047792730995E-005 
 3.752664135299134E-005  3.799866839273272E-005  3.847663280171935E-005  3.896060926286257E-005 
 3.945067339846908E-005  3.994690178205709E-005  4.044937195032119E-005  4.095816241524740E-005 
 4.147335267638103E-005  4.199502323324854E-005  4.252325559793573E-005  4.305813230782439E-005 
 4.359973693848859E-005  4.414815411675379E-005  4.470346953391984E-005  4.526576995915044E-005 
 4.583514325303113E-005  4.641167838129742E-005  4.699546542873609E-005  4.758659561326101E-005 
 4.818516130016614E-005  4.879125601655794E-005  4.940497446596891E-005  5.002641254315539E-005 
 5.065566734908126E-005  5.129283720609014E-005  5.193802167326860E-005  5.259132156200224E-005 
 5.325283895172782E-005  5.392267720588333E-005  5.460094098805877E-005  5.528773627835011E-005 
 5.598317038991872E-005  5.668735198575941E-005  5.740039109567917E-005  5.812239913348960E-005 
 5.885348891441561E-005  5.959377467272286E-005  6.034337207956720E-005  6.110239826106852E-005 
 6.187097181661186E-005  6.264921283737909E-005  6.343724292511295E-005  6.423518521111796E-005 
 6.504316437549970E-005  6.586130666664638E-005  6.668973992095565E-005  6.752859358280893E-005 
 6.837799872479750E-005  6.923808806820293E-005  7.010899600373495E-005  7.099085861253048E-005 
 7.188381368741622E-005  7.278800075443939E-005  7.370356109466877E-005  7.463063776627021E-005 
 7.556937562685988E-005  7.651992135613835E-005  7.748242347880971E-005  7.845703238778883E-005 
 7.944390036770057E-005  8.044318161867469E-005  8.145503228043965E-005  8.247961045671999E-005 
 8.351707623994024E-005  8.456759173623974E-005  8.563132109080222E-005  8.670843051350338E-005 
 8.779908830488197E-005  8.890346488243681E-005  9.002173280725497E-005  9.115406681097498E-005 
 9.230064382308859E-005  9.346164299858667E-005  9.463724574595250E-005  9.582763575550700E-005 
 9.703299902811131E-005  9.825352390422875E-005  9.948940109335468E-005  1.007408237038142E-004 
 1.020079872729361E-004  1.032910897976065E-004  1.045903317652049E-004  1.059059161849325E-004 
 1.072380486195311E-004  1.085869372174040E-004  1.099527927451392E-004  1.113358286204412E-004 
 1.127362609454799E-004  1.141543085406549E-004  1.155901929787881E-004  1.170441386197445E-004 
 1.185163726454881E-004  1.200071250955812E-004  1.215166289031268E-004  1.230451199311660E-004 
 1.245928370095318E-004  1.261600219721663E-004  1.277469196949086E-004  1.293537781337563E-004 
 1.309808483636097E-004  1.326283846175026E-004  1.342966443263264E-004  1.359858881590550E-004 
 1.376963800634738E-004  1.394283873074228E-004  1.411821805205582E-004  1.429580337366370E-004 
 1.447562244363377E-004  1.465770335906155E-004  1.484207457046048E-004  1.502876488620752E-004 
 1.521780347704425E-004  1.540921988063516E-004  1.560304400618271E-004  1.579930613910085E-004 
 1.599803694574720E-004  1.619926747821455E-004  1.640302917918304E-004  1.660935388683301E-004 
 1.681827383981977E-004  1.702982168231109E-004  1.724403046908767E-004  1.746093367070831E-004 
 1.768056517873955E-004  1.790295931105134E-004  1.812815081717937E-004  1.835617488375456E-004 
 1.858706714000128E-004  1.882086366330431E-004  1.905760098484605E-004  1.929731609531471E-004 
 1.954004645068391E-004  1.978582997806559E-004  2.003470508163592E-004  2.028671064863616E-004 
 2.054188605544893E-004  2.080027117375061E-004  2.106190637674169E-004  2.132683254545492E-004 
 2.159509107514313E-004  2.186672388174743E-004  2.214177340844640E-004  2.242028263228826E-004 
 2.270229507090583E-004  2.298785478931638E-004  2.327700640680696E-004  2.356979510390600E-004 
 2.386626662944317E-004  2.416646730769748E-004  2.447044404563567E-004  2.477824434024153E-004 
 2.508991628593723E-004  2.540550858209847E-004  2.572507054066358E-004  2.604865209383871E-004 
 2.637630380189991E-004  2.670807686109315E-004  2.704402311163395E-004  2.738419504580744E-004 
 2.772864581617040E-004  2.807742924385652E-004  2.843059982698595E-004  2.878821274918087E-004 
 2.915032388818791E-004  2.951698982460928E-004  2.988826785074352E-004  3.026421597953759E-004 
 3.064489295365151E-004  3.103035825463695E-004  3.142067211223141E-004  3.181589551376928E-004 
 3.221609021371110E-004  3.262131874329299E-004  3.303164442029709E-004  3.344713135894526E-004 
 3.386784447991699E-004  3.429384952049335E-004  3.472521304482869E-004  3.516200245435128E-004 
 3.560428599829500E-004  3.605213278436344E-004  3.650561278952806E-004  3.696479687096231E-004 
 3.742975677711311E-004  3.790056515891175E-004  3.837729558112578E-004  3.886002253385356E-004 
 3.934882144416360E-004  3.984376868788010E-004  4.034494160151683E-004  4.085241849436125E-004 
 4.136627866071028E-004  4.188660239226041E-004  4.241347099065328E-004  4.294696678017930E-004 
 4.348717312064103E-004  4.403417442037817E-004  4.458805614945675E-004  4.514890485302379E-004 
 4.571680816483025E-004  4.629185482092405E-004  4.687413467351511E-004  4.746373870501510E-004 
 4.806075904225348E-004  4.866528897087255E-004  4.927742294990365E-004  4.989725662652635E-004 
 5.052488685101372E-004  5.116041169186523E-004  5.180393045113025E-004  5.245554367992420E-004 
 5.311535319413974E-004  5.378346209035591E-004  5.445997476194701E-004  5.514499691539432E-004 
 5.583863558680305E-004  5.654099915862677E-004  5.725219737660262E-004  5.797234136689906E-004 
 5.870154365347971E-004  5.943991817568545E-004  6.018758030603757E-004  6.094464686826510E-004 
 6.171123615555866E-004  6.248746794905398E-004  6.327346353654811E-004  6.406934573145066E-004 
 6.487523889197387E-004  6.569126894056366E-004  6.651756338357530E-004  6.735425133119669E-004 
 6.820146351762184E-004  6.905933232147860E-004  6.992799178651290E-004  7.080757764253344E-004 
 7.169822732661970E-004  7.260008000459699E-004  7.351327659278101E-004  7.443795977999657E-004 
 7.537427404987296E-004  7.632236570341972E-004  7.728238288188678E-004  7.825447558991136E-004 
 7.923879571895682E-004  8.023549707104596E-004  8.124473538279277E-004  8.226666834973691E-004 
 8.330145565098353E-004  8.434925897415374E-004  8.541024204064857E-004  8.648457063123065E-004 
 8.757241261192818E-004  8.867393796026377E-004  8.978931879181420E-004  9.091872938710362E-004 
 9.206234621883529E-004  9.322034797946602E-004  9.439291560912683E-004  9.558023232389543E-004 
 9.678248364442414E-004  9.799985742492770E-004  9.923254388253624E-004  1.004807356270166E-003 
 1.017446276908684E-003  1.030244175597978E-003  1.043203052035758E-003  1.056324931072832E-003 
 1.069611863029496E-003  1.083065924015900E-003  1.096689216256446E-003  1.110483868418264E-003 
 1.124452035943819E-003  1.138595901387706E-003  1.152917674757677E-003  1.167419593859957E-003 
 1.182103924648911E-003  1.196972961581101E-003  1.212029027973799E-003  1.227274476368010E-003 
 1.242711688896062E-003  1.258343077653821E-003  1.274171085077582E-003  1.290198184325708E-003 
 1.306426879665064E-003  1.322859706862313E-003  1.339499233580138E-003  1.356348059778442E-003 
 1.373408818120599E-003  1.390684174384809E-003  1.408176827880636E-003  1.425889511870776E-003 
 1.443824993998142E-003  1.461986076718304E-003  1.480375597737388E-003  1.498996430455466E-003 
 1.517851484415534E-003  1.536943705758133E-003  1.556276077681695E-003  1.575851620908663E-003 
 1.595673394157493E-003  1.615744494620583E-003  1.636068058448214E-003  1.656647261238585E-003 
 1.677485318533999E-003  1.698585486323305E-003  1.719951061550648E-003  1.741585382630625E-003 
 1.763491829969921E-003  1.785673826495503E-003  1.808134838189456E-003  1.830878374630555E-003 
 1.853907989542640E-003  1.877227281349897E-003  1.900839893739114E-003  1.924749516229016E-003 
 1.948959884746763E-003  1.973474782211689E-003  1.998298039126403E-003  2.023433534175299E-003 
 2.048885194830618E-003  2.074656997966119E-003  2.100752970478472E-003  2.127177189916480E-003 
 2.153933785118187E-003  2.181026936856032E-003  2.208460878490094E-003  2.236239896629567E-003 
 2.264368331802556E-003  2.292850579134282E-003  2.321691089033838E-003  2.350894367889573E-003 
 2.380464978773221E-003  2.410407542152897E-003  2.440726736615048E-003  2.471427299595491E-003 
 2.502514028119655E-003  2.533991779552114E-003  2.565865472355576E-003  2.598140086859388E-003 
 2.630820666037729E-003  2.663912316297585E-003  2.697420208276631E-003  2.731349577651167E-003 
 2.765705725954185E-003  2.800494021403755E-003  2.835719899741819E-003  2.871388865083532E-003 
 2.907506490777303E-003  2.944078420275626E-003  2.981110368016890E-003  3.018608120318274E-003 
 3.056577536279860E-003  3.095024548700149E-003  3.133955165003048E-003  3.173375468176560E-003 
 3.213291617723258E-003  3.253709850622714E-003  3.294636482306057E-003  3.336077907642751E-003 
 3.378040601939816E-003  3.420531121953613E-003  3.463556106914335E-003  3.507122279563426E-003 
 3.551236447203995E-003  3.595905502764485E-003  3.641136425875709E-003  3.686936283961423E-003 
 3.733312233342639E-003  3.780271520355797E-003  3.827821482485034E-003  3.875969549508672E-003 
 3.924723244660138E-003  3.974090185803498E-003  4.024078086623739E-003  4.074694757832065E-003 
 4.125948108386333E-003  4.177846146726840E-003  4.230396982027670E-003  4.283608825463752E-003 
 4.337489991493882E-003  4.392048899159875E-003  4.447294073402051E-003  4.503234146391290E-003 
 4.559877858877803E-003  4.617234061556911E-003  4.675311716451972E-003  4.734119898314720E-003 
 4.793667796043225E-003  4.853964714117655E-003  4.915020074054134E-003  4.976843415876869E-003 
 5.039444399608799E-003  5.102832806781000E-003  5.167018541961056E-003  5.232011634300673E-003 
 5.297822239102761E-003  5.364460639408205E-003  5.431937247602643E-003  5.500262607043381E-003 
 5.569447393706841E-003  5.639502417856696E-003  5.710438625732991E-003  5.782267101262542E-003 
 5.854999067790779E-003  5.928645889835446E-003  6.003219074862323E-003  6.078730275083286E-003 
 6.155191289277009E-003  6.232614064632516E-003  6.311010698615974E-003  6.390393440860941E-003 
 6.470774695082393E-003  6.552167021014851E-003  6.634583136374831E-003  6.718035918848032E-003 
 6.802538408101505E-003  6.888103807821108E-003  6.974745487774648E-003  7.062476985900881E-003 
 7.151312010424882E-003  7.241264441999969E-003  7.332348335876579E-003  7.424577924098456E-003 
 7.517967617726392E-003  7.612532009090023E-003  7.708285874067892E-003  7.805244174396205E-003 
 7.903422060006668E-003  8.002834871393645E-003  8.103498142011171E-003  8.205427600700079E-003 
 8.308639174145663E-003  8.413148989366273E-003  8.518973376233155E-003  8.626128870022060E-003 
 8.734632213996901E-003  8.844500362025918E-003  8.955750481230786E-003  9.068399954668961E-003 
 9.182466384049858E-003  9.297967592485135E-003  9.414921627273592E-003  9.533346762721126E-003 
 9.653261502996077E-003  9.774684585020588E-003  9.897634981398255E-003  1.002213190337865E-002 
 1.014819480385915E-002  1.027584338042441E-002  1.040509757842423E-002  1.053597759409002E-002 
 1.066850387769048E-002  1.080269713672708E-002  1.093857833916955E-002  1.107616871673223E-002 
 1.121548976819154E-002  1.135656326274521E-002  1.149941124341380E-002  1.164405603048491E-002 
 1.179052022500080E-002  1.193882671228984E-002  1.208899866554240E-002  1.224105954943172E-002 
 1.239503312378027E-002  1.255094344727230E-002  1.270881488121306E-002  1.286867209333529E-002 
 1.303054006165362E-002  1.319444407836743E-002  1.336040975381278E-002  1.352846302046414E-002 
 1.369863013698630E-002  1.387093769233746E-002  1.404541260992369E-002  1.422208215180583E-002 
 1.440097392295924E-002  1.458211587558711E-002  1.476553631348811E-002  1.495126389647880E-002 
 1.513932764487189E-002  1.532975694401070E-002  1.552258154886063E-002  1.571783158865853E-002 
 1.591553757162032E-002  1.611573038970810E-002  1.631844132345697E-002  1.652370204686275E-002 
 1.673154463233110E-002  1.694200155568884E-002  1.715510570125843E-002  1.737089036699617E-002 
 1.758938926969509E-002  1.781063655025331E-002  1.803466677900852E-002  1.826151496113977E-002 
 1.849121654213704E-002  1.872380741333968E-002  1.895932391754454E-002  1.919780285468457E-002 
 1.943928148757888E-002  1.968379754775514E-002  1.993138924134522E-002  2.018209525505501E-002 
 2.043595476220919E-002  2.069300742887224E-002  2.095329342004630E-002  2.121685340594703E-002 
 2.148372856835848E-002  2.175396060706773E-002  2.202759174638060E-002  2.230466474171933E-002 
 2.258522288630313E-002  2.286931001791292E-002  2.315697052574098E-002  2.344824935732692E-002 
 2.374319202558077E-002  2.404184461589450E-002  2.434425379334300E-002  2.465046680997547E-002 
 2.496053151219877E-002  2.527449634825344E-002  2.559241037578387E-002  2.591432326950370E-002 
 2.624028532895749E-002  2.657034748638021E-002  2.690456131465546E-002  2.724297903537386E-002 
 2.758565352699284E-002  2.793263833309885E-002  2.828398767077380E-002  2.863975643906654E-002 
 2.900000022757089E-002  2.936477532511177E-002  2.973413872854032E-002  3.010814815163977E-002 
 3.048686203414341E-002  3.087033955086587E-002  3.125864062094937E-002  3.165182591722609E-002 
 3.204995687569853E-002  3.245309570513893E-002  3.286130539680956E-002  3.327464973430532E-002 
 3.369319330351987E-002  3.411700150273743E-002  3.454614055285136E-002  3.498067750771133E-002 
 3.542068026460064E-002  3.586621757484523E-002  3.631735905455627E-002  3.677417519550784E-002 
 3.723673737615130E-002  3.770511787276859E-002  3.817938987076509E-002  3.865962747610547E-002 
 3.914590572689268E-002  3.963830060509262E-002  4.013688904840692E-002  4.064174896229409E-002 
 4.115295923214290E-002  4.167059973559816E-002  4.219475135504152E-002  4.272549599023007E-002 
 4.326291657109273E-002  4.380709707068869E-002  4.435812251832826E-002  4.491607901285854E-002 
 4.548105373611714E-002  4.605313496655384E-002  4.663241209302490E-002  4.721897562875996E-002 
 4.781291722550467E-002  4.841432968784210E-002  4.902330698769288E-002  4.963994427899919E-002 
 5.026433791259242E-002  5.089658545124800E-002  5.153678568493034E-002  5.218503864622825E-002 
 5.284144562598593E-002  5.350610918912952E-002  5.417913319069284E-002  5.486062279204560E-002 
 5.555068447732434E-002  5.624942607007138E-002  5.695695675008234E-002  5.767338707046520E-002 
 5.839882897491537E-002  5.913339581520609E-002  5.987720236890078E-002  6.063036485728682E-002 
 6.139300096353513E-002  6.216522985108915E-002  6.294717218228342E-002  6.373895013719820E-002 
 6.454068743274993E-002  6.535250934202196E-002  6.617454271383950E-002  6.700691599258912E-002 
 6.784975923828922E-002  6.870320414691182E-002  6.956738407096003E-002  7.044243404030537E-002 
 7.132849078328563E-002  7.222569274806973E-002  7.313418012429013E-002  7.405409486494749E-002 
 7.498558070859185E-002  7.592878320178115E-002  7.688384972182404E-002  7.785092949980750E-002 
 7.883017364391412E-002  7.982173516303397E-002  8.082576899067148E-002  8.184243200915509E-002 
 8.287188307415000E-002  8.391428303947926E-002  8.496979478225851E-002  8.603858322834475E-002 
 8.712081537810724E-002  8.821666033252143E-002  8.932628931959058E-002  9.044987572110184E-002 
 9.158759509971606E-002  9.273962522640100E-002  9.390614610820798E-002  9.508734001639775E-002 
 9.628339151492193E-002  9.749448748926023E-002  9.872081717562281E-002  9.996257219051831E-002 
 1.012199465606938E-001  1.024931367534532E-001  1.037823417073541E-001  1.050877628632935E-001 
 1.064096041959833E-001  1.077480722458204E-001  1.091033761511614E-001  1.104757276809983E-001 
 1.118653412680500E-001  1.132724340422668E-001  1.146972258647571E-001  1.161399393621422E-001 
 1.176007999613410E-001  1.190800359247945E-001  1.205778783861317E-001  1.220945613862841E-001 
 1.236303219100566E-001  1.251853999231552E-001  1.267600384096834E-001  1.283544834101087E-001 
 1.299689840597058E-001  1.316037926274864E-001  1.332591645556149E-001  1.349353584993230E-001 
 1.366326363673250E-001  1.383512633627405E-001  1.400915080245344E-001  1.418536422694753E-001 
 1.436379414346242E-001  1.454446843203563E-001  1.472741532339227E-001  1.491266340335637E-001 
 1.510024161731727E-001  1.529017927475256E-001  1.548250605380766E-001  1.567725200593304E-001 
 1.587444756058000E-001  1.607412352995509E-001  1.627631111383479E-001  1.648104190444046E-001 
 1.668834789137462E-001  1.689826146661954E-001  1.711081542959837E-001  1.732604299230031E-001 
 1.754397778446992E-001  1.776465385886183E-001  1.798810569656168E-001  1.821436821237368E-001 
 1.844347676027631E-001  1.867546713894625E-001  1.891037559735219E-001  1.914823884041869E-001 
 1.938909403476138E-001  1.963297881449445E-001  1.987993128711086E-001  2.012999003943691E-001 
 2.038319414366144E-001  2.063958316344081E-001  2.089919716008107E-001  2.116207669879730E-001 
 2.142826285505229E-001  2.169779722097457E-001  2.197072191185709E-001  2.224707957273816E-001 
 2.252691338506447E-001  2.281026707343855E-001  2.309718491245075E-001  2.338771173359707E-001 
 2.368189293228447E-001  2.397977447492368E-001  2.428140290611184E-001  2.458682535590501E-001 
 2.489608954718228E-001  2.520924380310284E-001  2.552633705465619E-001  2.584741884830806E-001 
 2.617253935374201E-001  2.650174937169838E-001  2.683510034191235E-001  2.717264435115114E-001 
 2.751443414135297E-001  2.786052311786798E-001  2.821096535780279E-001  2.856581561847046E-001 
 2.892512934594607E-001  2.928896268373061E-001  2.965737248152339E-001  3.003041630410476E-001 
 3.040815244033105E-001  3.079063991224195E-001  3.117793848428319E-001  3.157010867264466E-001 
 3.196721175471606E-001  3.236930977866199E-001  3.277646557311665E-001  3.318874275700134E-001 
 3.360620574946490E-001  3.402891977994911E-001  3.445695089838137E-001  3.489036598549465E-001 
 3.532923276327817E-001  3.577361980555889E-001  3.622359654871617E-001  3.667923330253172E-001 
 3.714060126117522E-001  3.760777251432890E-001  3.808082005845163E-001  3.855981780818446E-001 
 3.904484060790043E-001  3.953596424339868E-001  4.003326545374650E-001  4.053682194326984E-001 
 4.104671239369456E-001  4.156301647644104E-001  4.208581486507251E-001  4.261518924790091E-001 
 4.315122234075064E-001  4.369399789988287E-001  4.424360073508318E-001  4.480011672291256E-001 
 4.536363282012645E-001  4.593423707726160E-001  4.651201865239390E-001  4.709706782507018E-001 
 4.768947601041377E-001  4.828933577340896E-001  4.889674084336426E-001  4.951178612855744E-001 
 5.013456773106580E-001  5.076518296178164E-001  5.140373035561782E-001  5.205030968690384E-001 
 5.270502198497553E-001  5.336796954996167E-001  5.403925596876789E-001  5.471898613126293E-001 
 5.540726624666772E-001  5.610420386015041E-001  5.680990786963125E-001  5.752448854279727E-001 
 5.824805753433258E-001  5.898072790336433E-001  5.972261413112809E-001  6.047383213885655E-001 
 6.123449930589159E-001  6.200473448802570E-001  6.278465803607330E-001  6.357439181467531E-001 
 6.437405922134157E-001  6.518378520573110E-001  6.600369628917646E-001  6.683392058445269E-001 
 6.767458781579477E-001  6.852582933916823E-001  6.938777816279269E-001  7.026056896792562E-001 
 7.114433812990615E-001  7.203922373946363E-001  7.294536562429548E-001  7.386290537091448E-001 
 7.479198634677293E-001  7.573275372266368E-001  7.668535449540295E-001  7.764993751079983E-001 
 7.862665348691266E-001  7.961565503759999E-001  8.061709669636639E-001  8.163113494050821E-001 
 8.265792821556446E-001  8.369763696007312E-001  8.475042363064094E-001  8.581645272732729E-001 
 8.689589081934704E-001  8.798890657109857E-001  8.909567076851646E-001  9.021635634575849E-001 
 9.135113841222632E-001  9.250019427992623E-001  9.366370349117565E-001  9.484184784665568E-001 
 9.603481143381898E-001  9.724278065565334E-001  9.846594425980695E-001  9.970449336808184E-001 
 1.009586215062957E+000  1.022285246345218E+000  1.035144011777078E+000  1.048164520566793E+000 
 1.061348807195356E+000  1.074698931734372E+000  1.088216980167964E+000  1.101905064718703E+000 
 1.115765324177646E+000  1.129799924238536E+000  1.144011057836182E+000  1.158400945489123E+000 
 1.172971835646584E+000  1.187726005039793E+000  1.202665759037739E+000  1.217793432007374E+000 
 1.233111387678381E+000  1.248622019512499E+000  1.264327751077505E+000  1.280231036425914E+000 
 1.296334360478413E+000  1.312640239412149E+000  1.329151221053883E+000  1.345869885278083E+000 
 1.362798844410054E+000  1.379940743634098E+000  1.397298261406845E+000  1.414874109875765E+000 
 1.432671035302935E+000  1.450691818494165E+000  1.468939275233487E+000  1.487416256723145E+000 
 1.506125650029090E+000  1.525070378532087E+000  1.544253402384511E+000  1.563677718972863E+000 
 1.583346363386132E+000  1.603262408890026E+000  1.623428967407169E+000  1.643849190003364E+000 
 1.664526267379931E+000  1.685463430372281E+000  1.706663950454732E+000  1.728131140251674E+000 
 1.749868354055192E+000  1.771878988349164E+000  1.794166482339981E+000  1.816734318493927E+000 
 1.839586023081309E+000  1.862725166727467E+000  1.886155364970667E+000  1.909880278827057E+000 
 1.933903615362699E+000  1.958229128272795E+000  1.982860618468235E+000  2.007801934669468E+000 
 2.033056974007899E+000  2.058629682634808E+000  2.084524056337940E+000  2.110744141165875E+000 
 2.137294034060207E+000  2.164177883495719E+000  2.191399890128585E+000  2.218964307452717E+000 
 2.246875442464411E+000  2.275137656335289E+000  2.303755365093773E+000  2.332733040315084E+000 
 2.362075209819922E+000  2.391786458381979E+000  2.421871428444280E+000  2.452334820844612E+000 
 2.483181395550019E+000  2.514415972400548E+000  2.546043431862388E+000  2.578068715790418E+000 
 2.610496828200411E+000  2.643332836050912E+000  2.676581870034945E+000  2.710249125381722E+000 
 2.744339862668381E+000  2.778859408641985E+000  2.813813157051827E+000  2.849206569492201E+000 
 2.885045176255818E+000  2.921334577197891E+000  2.958080442611152E+000  2.995288514111838E+000 
 3.032964605536811E+000  3.071114603852018E+000  3.109744470072303E+000  3.148860240192861E+000 
 3.188468026132360E+000  3.228574016687926E+000  3.269184478502190E+000  3.310305757042422E+000 
 3.351944277592060E+000  3.394106546254662E+000  3.436799150970474E+000  3.480028762545853E+000 
 3.523802135695548E+000  3.568126110098175E+000  3.613007611464921E+000  3.658453652621673E+000 
 3.704471334604836E+000  3.751067847770829E+000  3.798250472919643E+000  3.846026582432459E+000 
 3.894403641423574E+000  3.943389208906895E+000  3.992990938976989E+000  4.043216582005100E+000 
 4.094073985850144E+000  4.145571097084930E+000  4.197715962237871E+000  4.250516729050225E+000 
 4.303981647749236E+000  4.358119072337233E+000  4.412937461896939E+000  4.468445381913265E+000 
 4.524651505611629E+000  4.581564615313220E+000  4.639193603807227E+000  4.697547475740334E+000 
 4.756635349023768E+000  4.816466456257928E+000  4.877050146175056E+000  4.938395885099968E+000 
 5.000513258429163E+000  5.063411972128620E+000  5.127101854250304E+000  5.191592856467884E+000 
 5.256895055631674E+000  5.323018655343134E+000  5.389973987549267E+000  5.457771514156931E+000 
 5.526421828667604E+000  5.595935657832610E+000  5.666323863329161E+000  5.737597443457593E+000 
 5.809767534859788E+000  5.882845414259369E+000  5.956842500223680E+000  6.031770354947930E+000 
 6.107640686061885E+000  6.184465348459117E+000  6.262256346149438E+000  6.341025834134514E+000 
 6.420786120307082E+000  6.501549667374150E+000  6.583329094804238E+000  6.666137180799277E+000 
 6.749986864291189E+000  6.834891246963590E+000  6.920863595299034E+000  7.007917342651838E+000 
 7.096066091347151E+000  7.185323614806308E+000  7.275703859698919E+000  7.367220948122156E+000 
 7.459889179807252E+000  7.553723034353956E+000  7.648737173492959E+000  7.744946443376784E+000 
 7.842365876899614E+000  7.941010696046115E+000  8.040896314269984E+000  8.142038338902305E+000 
 8.244452573590168E+000  8.348155020766139E+000  8.453161884148543E+000  8.559489571273437E+000 
 8.667154696058276E+000  8.776174081397819E+000  8.886564761792863E+000  8.998343986011777E+000 
 9.111529219785778E+000  9.226138148537938E+000  9.342188680146513E+000  9.459698947743210E+000 
 9.578687312546380E+000  9.699172366730128E+000  9.821172936329313E+000  9.944708084181114E+000 
 1.006979711290375E+001  1.019645956791243E+001  1.032471524047344E+001  1.045458417079660E+001 
 1.058608665116644E+001  1.071924322911310E+001  1.085407471062277E+001  1.099060216338875E+001 
 1.112884692010334E+001  1.126883058179099E+001  1.141057502118368E+001  1.155410238613841E+001 