<UPF version="2.0.1">
  <PP_INFO>
    Generated using "atomic" code by A. Dal Corso  v.5.1.2
    Author: ADC
    Generation date: 30Jul2016
    Pseudopotential type: PAW
    Element: Tb
    Functional:  SLA  PW   PBX  PBC

    Suggested minimum cutoff for wavefunctions: 121. Ry
    Suggested minimum cutoff for charge density: 620. Ry
    The Pseudo was generated with a Scalar-Relativistic Calculation
    Local Potential by smoothing AE potential with Bessel fncs, cutoff radius:   1.7000
    Pseudopotential contains additional information for GIPAW reconstruction.

    Valence configuration: 
    nl pn  l   occ       Rcut    Rcut US       E pseu
    5S  1  0  2.00      1.300      1.600    -3.490063
    6S  2  0  2.00      1.300      1.600    -0.272308
    5P  2  1  6.00      1.400      1.800    -1.825003
    4D  3  2 10.00      1.000      1.200   -10.798436
    5D  4  2  0.00      1.000      1.200    -0.095599
    4F  4  3  9.00      1.100      1.300    -0.222753
    Generation configuration:
    5S  1  0  2.00      1.300      1.600    -3.489966
    6S  2  0  2.00      1.300      1.600    -0.272276
    5P  2  1  6.00      1.400      1.800    -1.824913
    6P  3  1  0.00      1.400      1.800     0.300000
    4D  3  2 10.00      1.000      1.200   -10.798330
    5D  4  2  0.00      1.000      1.200    -0.095558
    4F  4  3  9.00      1.100      1.300    -0.222648
    4F  4  3  0.00      1.100      1.300     1.000000

    Pseudization used: troullier-martins
<PP_INPUTFILE>
 &input
   title='Tb',
   zed=65.0,
   rel=1,
   config='[Xe] 4f9 5d0.0 6s2. 6p0.',
   iswitch=3,
   dft='PBE'
 /
 &inputp
   lpaw=.true.,
   pseudotype=3,
   file_pseudopw='Tb.pbe-spdfn-kjpaw_psl.1.0.0.UPF',
   author='ADC',
   lloc=-1,
   rcloc=1.7,
   which_augfun='PSQ',
   rmatch_augfun_nc=.true.,
   nlcc=.true.,
   new_core_ps=.true.,
   rcore=1.2,
   tm=.true.
 /
8
5S  1  0  2.00  0.00  1.30  1.60  0.0
6S  2  0  2.00  0.00  1.30  1.60  0.0
5P  2  1  6.00  0.00  1.40  1.80  0.0
6P  3  1  0.00  0.30  1.40  1.80  0.0
4D  3  2 10.00  0.00  1.00  1.20  0.0
5D  4  2  0.00  0.00  1.00  1.20  0.0
4F  4  3  9.00  0.00  1.10  1.30  0.0
4F  4  3  0.00  1.00  1.10  1.30  0.0
</PP_INPUTFILE>
  </PP_INFO>
  <!--                               -->
  <!-- END OF HUMAN READABLE SECTION -->
  <!--                               -->
  <PP_HEADER generated='Generated using "atomic" code by A. Dal Corso  v.5.1.2'
             author="ADC"
             date="30Jul2016"
             comment=""
             element="Tb"
             pseudo_type="PAW"
             relativistic="scalar"
             is_ultrasoft="T"
             is_paw="T"
             is_coulomb="F"
             has_so="F"
             has_wfc="T"
             has_gipaw="T"
             paw_as_gipaw="T"
             core_correction="T"
             functional=" SLA  PW   PBX  PBC"
             z_valence="2.900000000000000E+001"
             total_psenergy="-1.280574627527604E+003"
             wfc_cutoff="1.210356473326247E+002"
             rho_cutoff="6.200822597091446E+002"
             l_max="3"
             l_max_rho="6"
             l_local="-1"
             mesh_size="1263"
             number_of_wfc="6"
             number_of_proj="8"/>
  <PP_MESH dx="1.250000000000000E-002" mesh="1263" xmin="-7.000000000000000E+000" rmax="1.000000000000000E+002"
zmesh="6.500000000000000E+001">
    <PP_R type="real" size="1263" columns="4">
 1.402895331622333E-005  1.420541582567727E-005  1.438409796025511E-005  1.456502763940391E-005 
 1.474823313375415E-005  1.493374306953706E-005  1.512158643305752E-005  1.531179257522325E-005 
 1.550439121613093E-005  1.569941244971007E-005  1.589688674842519E-005  1.609684496803721E-005 
 1.629931835242477E-005  1.650433853846611E-005  1.671193756098243E-005  1.692214785774336E-005 
 1.713500227453543E-005  1.735053407029435E-005  1.756877692230165E-005  1.778976493144704E-005 
 1.801353262755653E-005  1.824011497478789E-005  1.846954737709386E-005  1.870186568375407E-005 
 1.893710619497663E-005  1.917530566756999E-005  1.941650132068638E-005  1.966073084163730E-005 
 1.990803239178228E-005  2.015844461249169E-005  2.041200663118448E-005  2.066875806744195E-005 
 2.092873903919837E-005  2.119199016900949E-005  2.145855259039998E-005  2.172846795429049E-005 
 2.200177843550576E-005  2.227852673936455E-005  2.255875610835235E-005  2.284251032887826E-005 
 2.312983373811650E-005  2.342077123093433E-005  2.371536826690693E-005  2.401367087742050E-005 
 2.431572567286488E-005  2.462157984991637E-005  2.493128119891241E-005  2.524487811131886E-005 
 2.556241958729129E-005  2.588395524333140E-005  2.620953532003960E-005  2.653921068996527E-005 
 2.687303286555569E-005  2.721105400720493E-005  2.755332693140415E-005  2.789990511899408E-005 
 2.825084272352165E-005  2.860619457970155E-005  2.896601621198427E-005  2.933036384323195E-005 
 2.969929440350322E-005  3.007286553894872E-005  3.045113562081841E-005  3.083416375458214E-005 
 3.122200978916514E-005  3.161473432629937E-005  3.201239872999276E-005  3.241506513611745E-005 
 3.282279646211859E-005  3.323565641684546E-005  3.365370951050593E-005  3.407702106474642E-005 
 3.450565722285852E-005  3.493968496011395E-005  3.537917209422978E-005  3.582418729596482E-005 
 3.627480009984973E-005  3.673108091505190E-005  3.719310103637698E-005  3.766093265540897E-005 
 3.813464887179013E-005  3.861432370464305E-005  3.910003210413628E-005  3.959184996319538E-005 
 4.008985412936151E-005  4.059412241679880E-005  4.110473361845309E-005  4.162176751836349E-005 
 4.214530490412874E-005  4.267542757953059E-005  4.321221837731558E-005  4.375576117213796E-005 
 4.430614089366528E-005  4.486344353984874E-005  4.542775619036072E-005  4.599916702020093E-005 
 4.657776531347408E-005  4.716364147734066E-005  4.775688705614321E-005  4.835759474571047E-005 
 4.896585840784103E-005  4.958177308496964E-005  5.020543501501766E-005  5.083694164643049E-005 
 5.147639165340419E-005  5.212388495130326E-005  5.277952271227284E-005  5.344340738104698E-005 
 5.411564269095582E-005  5.479633368013430E-005  5.548558670793431E-005  5.618350947154374E-005 
 5.689021102281434E-005  5.760580178530123E-005  5.833039357151704E-005  5.906409960040252E-005 
 5.980703451501739E-005  6.055931440045359E-005  6.132105680197371E-005  6.209238074337783E-005 
 6.287340674560102E-005  6.366425684554518E-005  6.446505461514738E-005  6.527592518068831E-005 
 6.609699524234370E-005  6.692839309398107E-005  6.777024864320625E-005  6.862269343166156E-005 
 6.948586065557948E-005  7.035988518659497E-005  7.124490359281916E-005  7.214105416017863E-005 
 7.304847691402273E-005  7.396731364100285E-005  7.489770791122713E-005  7.583980510069311E-005 
 7.679375241400334E-005  7.775969890736637E-005  7.873779551188694E-005  7.972819505714961E-005 
 8.073105229509822E-005  8.174652392421655E-005  8.277476861401262E-005  8.381594702981115E-005 
 8.487022185785802E-005  8.593775783073999E-005  8.701872175312474E-005  8.811328252782439E-005 
 8.922161118218679E-005  9.034388089481926E-005  9.148026702264760E-005  9.263094712831629E-005 
 9.379610100793289E-005  9.497591071916156E-005  9.617056060967017E-005  9.738023734593457E-005 
 9.860512994240590E-005  9.984542979104442E-005  1.011013306912248E-004  1.023730288800181E-004 
 1.036607230628533E-004  1.049646144445666E-004  1.062849067608390E-004  1.076218063100309E-004 
 1.089755219854173E-004  1.103462653078261E-004  1.117342504586906E-004  1.131396943135144E-004 
 1.145628164757591E-004  1.160038393111581E-004  1.174629879824609E-004  1.189404904846165E-004 
 1.204365776803965E-004  1.219514833364691E-004  1.234854441599256E-004  1.250386998352648E-004 
 1.266114930618466E-004  1.282040695918124E-004  1.298166782684851E-004  1.314495710652515E-004 
 1.331030031249328E-004  1.347772327996528E-004  1.364725216912040E-004  1.381891346919249E-004 
 1.399273400260896E-004  1.416874092918175E-004  1.434696175035127E-004  1.452742431348340E-004 
 1.471015681622078E-004  1.489518781088876E-004  1.508254620895666E-004  1.527226128555540E-004 
 1.546436268405167E-004  1.565888042067980E-004  1.585584488923192E-004  1.605528686580693E-004 
 1.625723751361947E-004  1.646172838786912E-004  1.666879144067100E-004  1.687845902604844E-004 
 1.709076390498816E-004  1.730573925055948E-004  1.752341865309750E-004  1.774383612545172E-004 
 1.796702610830070E-004  1.819302347553326E-004  1.842186353969788E-004  1.865358205752015E-004 
 1.888821523548990E-004  1.912579973551860E-004  1.936637268066769E-004  1.960997166094934E-004 
 1.985663473919980E-004  2.010640045702689E-004  2.035930784083222E-004  2.061539640790897E-004 
 2.087470617261682E-004  2.113727765263407E-004  2.140315187528865E-004  2.167237038396882E-004 
 2.194497524461424E-004  2.222100905228905E-004  2.250051493783726E-004  2.278353657462215E-004 
 2.307011818535034E-004  2.336030454898146E-004  2.365414100772528E-004  2.395167347412629E-004 
 2.425294843823767E-004  2.455801297488557E-004  2.486691475102442E-004  2.517970203318527E-004 
 2.549642369501731E-004  2.581712922492455E-004  2.614186873379859E-004  2.647069296284828E-004 
 2.680365329152849E-004  2.714080174556794E-004  2.748219100509852E-004  2.782787441288663E-004 
 2.817790598266796E-004  2.853234040758752E-004  2.889123306874525E-004  2.925464004384962E-004 
 2.962261811597989E-004  2.999522478245846E-004  3.037251826383505E-004  3.075455751298374E-004 
 3.114140222431445E-004  3.153311284310040E-004  3.192975057492268E-004  3.233137739523389E-004 
 3.273805605904181E-004  3.314985011071503E-004  3.356682389391196E-004  3.398904256163453E-004 
 3.441657208640862E-004  3.484947927059226E-004  3.528783175681374E-004  3.573169803854089E-004 
 3.618114747078324E-004  3.663625028092905E-004  3.709707757971827E-004  3.756370137235390E-004 
 3.803619456975292E-004  3.851463099993869E-004  3.899908541957684E-004  3.948963352565605E-004 
 3.998635196731592E-004  4.048931835782356E-004  4.099861128670074E-004  4.151431033200382E-004 
 4.203649607275780E-004  4.256525010154704E-004  4.310065503726434E-004  4.364279453802016E-004 
 4.419175331421451E-004  4.474761714177304E-004  4.531047287554968E-004  4.588040846289801E-004 
 4.645751295741308E-004  4.704187653284630E-004  4.763359049719522E-004  4.823274730697060E-004 
 4.883944058164300E-004  4.945376511827087E-004  5.007581690631297E-004  5.070569314262671E-004 
 5.134349224665551E-004  5.198931387580701E-004  5.264325894102466E-004  5.330542962255542E-004 
 5.397592938591545E-004  5.465486299805687E-004  5.534233654373795E-004  5.603845744209882E-004 
 5.674333446344618E-004  5.745707774624865E-004  5.817979881434628E-004  5.891161059437641E-004 
 5.965262743341847E-004  6.040296511686126E-004  6.116274088649433E-004  6.193207345882747E-004 
 6.271108304364035E-004  6.349989136276545E-004  6.429862166910757E-004  6.510739876590203E-004 
 6.592634902621567E-004  6.675560041269289E-004  6.759528249754988E-004  6.844552648282080E-004 
 6.930646522085819E-004  7.017823323509139E-004  7.106096674104634E-004  7.195480366762920E-004 
 7.285988367867835E-004  7.377634819478689E-004  7.470434041539996E-004  7.564400534119012E-004 
 7.659548979671376E-004  7.755894245335289E-004  7.853451385254525E-004  7.952235642930679E-004 
 8.052262453604982E-004  8.153547446670123E-004  8.256106448112329E-004  8.359955482984230E-004 
 8.465110777908809E-004  8.571588763614831E-004  8.679406077504207E-004  8.788579566251584E-004 
 8.899126288436690E-004  9.011063517209778E-004  9.124408742990572E-004  9.239179676201223E-004 
 9.355394250033535E-004  9.473070623251113E-004  9.592227183026686E-004  9.712882547815134E-004 
 9.835055570262703E-004  9.958765340152701E-004  1.008403118738836E-003  1.021087268501317E-003 
 1.033930965226919E-003  1.046936215769388E-003  1.060105052225578E-003  1.073439532252980E-003 
 1.086941739391225E-003  1.100613783387650E-003  1.114457800526945E-003  1.128475953964956E-003 
 1.142670434066676E-003  1.157043458748499E-003  1.171597273824774E-003  1.186334153358719E-003 
 1.201256400017741E-003  1.216366345433241E-003  1.231666350564932E-003  1.247158806069742E-003 
 1.262846132675366E-003  1.278730781558501E-003  1.294815234727852E-003  1.311102005411952E-003 
 1.327593638451854E-003  1.344292710698775E-003  1.361201831416728E-003  1.378323642690226E-003 
 1.395660819837116E-003  1.413216071826598E-003  1.430992141702515E-003  1.448991807011949E-003 
 1.467217880239226E-003  1.485673209245367E-003  1.504360677713078E-003  1.523283205597328E-003 
 1.542443749581596E-003  1.561845303539863E-003  1.581490899004407E-003  1.601383605639487E-003 
 1.621526531720990E-003  1.641922824622096E-003  1.662575671305066E-003  1.683488298819215E-003 
 1.704663974805138E-003  1.726106008005288E-003  1.747817748780981E-003  1.769802589635884E-003 
 1.792063965746108E-003  1.814605355496963E-003  1.837430281026456E-003  1.860542308775642E-003 
 1.883945050045876E-003  1.907642161563097E-003  1.931637346049189E-003  1.955934352800547E-003 
 1.980536978273911E-003  2.005449066679565E-003  2.030674510582004E-003  2.056217251508161E-003 
 2.082081280563272E-003  2.108270639054500E-003  2.134789419122389E-003  2.161641764380280E-003 
 2.188831870561749E-003  2.216363986176204E-003  2.244242413172730E-003  2.272471507612259E-003 
 2.301055680348232E-003  2.329999397715795E-003  2.359307182229669E-003  2.388983613290816E-003 
 2.419033327901964E-003  2.449461021392159E-003  2.480271448150414E-003  2.511469422368591E-003 
 2.543059818793640E-003  2.575047573489270E-003  2.607437684607234E-003  2.640235213168290E-003 
 2.673445283853002E-003  2.707073085802485E-003  2.741123873429208E-003  2.775602967238013E-003 
 2.810515754657458E-003  2.845867690881604E-003  2.881664299722416E-003  2.917911174472851E-003 
 2.954613978780834E-003  2.991778447534210E-003  3.029410387756832E-003  3.067515679515926E-003 
 3.106100276840853E-003  3.145170208653447E-003  3.184731579710043E-003  3.224790571555351E-003 
 3.265353443488355E-003  3.306426533540318E-003  3.348016259465123E-003  3.390129119742061E-003 
 3.432771694591228E-003  3.475950647001706E-003  3.519672723772654E-003  3.563944756567522E-003 
 3.608773662981505E-003  3.654166447622433E-003  3.700130203205265E-003  3.746672111660320E-003 
 3.793799445255486E-003  3.841519567732519E-003  3.889839935457638E-003  3.938768098586617E-003 
 3.988311702244486E-003  4.038478487720114E-003  4.089276293675797E-003  4.140713057372059E-003 
 4.192796815907887E-003  4.245535707476511E-003  4.298937972637038E-003  4.353011955602047E-003 
 4.407766105541386E-003  4.463208977902391E-003  4.519349235746661E-003  4.576195651103704E-003 
 4.633757106341574E-003  4.692042595554758E-003  4.751061225969537E-003  4.810822219366983E-003 
 4.871334913523899E-003  4.932608763671860E-003  4.994653343974612E-003  5.057478349024064E-003 
 5.121093595355072E-003  5.185509022979299E-003  5.250734696938368E-003  5.316780808876531E-003 
 5.383657678633161E-003  5.451375755855213E-003  5.519945621630027E-003  5.589377990138638E-003 
 5.659683710329882E-003  5.730873767615585E-003  5.802959285587031E-003  5.875951527753063E-003 
 5.949861899300023E-003  6.024701948873831E-003  6.100483370384507E-003  6.177218004833335E-003 
 6.254917842163066E-003  6.333595023131366E-003  6.413261841207821E-003  6.493930744494855E-003 
 6.575614337672720E-003  6.658325383969039E-003  6.742076807153071E-003  6.826881693555075E-003 
 6.912753294111102E-003  6.999705026433442E-003  7.087750476907170E-003  7.176903402813056E-003 
 7.267177734477149E-003  7.358587577447448E-003  7.451147214697887E-003  7.544871108860098E-003 
 7.639773904483229E-003  7.735870430322168E-003  7.833175701654604E-003  7.931704922627143E-003 
 8.031473488631022E-003  8.132496988707657E-003  8.234791207984466E-003  8.338372130141342E-003 
 8.443255939908101E-003  8.549459025593410E-003  8.656997981645480E-003  8.765889611244970E-003 
 8.876150928930565E-003  8.987799163257478E-003  9.100851759489468E-003  9.215326382324704E-003 
 9.331240918655899E-003  9.448613480365199E-003  9.567462407154160E-003  9.687806269409391E-003 
 9.809663871104213E-003  9.933054252736800E-003  1.005799669430535E-002  1.018451071832053E-002 
 1.031261609285600E-002  1.044233283463715E-002  1.057368121216880E-002  1.070668174890219E-002 
 1.084135522644175E-002  1.097772268779235E-002  1.111580544064727E-002  1.125562506071757E-002 
 1.139720339510335E-002  1.154056256570742E-002  1.168572497269183E-002  1.183271329797802E-002 
 1.198155050879085E-002  1.213225986124734E-002  1.228486490399042E-002  1.243938948186851E-002 
 1.259585773966127E-002  1.275429412585231E-002  1.291472339644935E-002  1.307717061885228E-002 
 1.324166117577013E-002  1.340822076918705E-002  1.357687542437839E-002  1.374765149397717E-002 
 1.392057566209169E-002  1.409567494847505E-002  1.427297671274698E-002  1.445250865866886E-002 
 1.463429883847252E-002  1.481837565724342E-002  1.500476787735897E-002  1.519350462298280E-002 
 1.538461538461539E-002  1.557813002370207E-002  1.577407877729891E-002  1.597249226279732E-002 
 1.617340148270807E-002  1.637683782950553E-002  1.658283309053279E-002  1.679141945296849E-002 
 1.700262950885613E-002  1.721649626019664E-002  1.743305312410502E-002  1.765233393803188E-002 
 1.787437296505051E-002  1.809920489921063E-002  1.832686487095937E-002  1.855738845263047E-002 
 1.879081166400262E-002  1.902717097792746E-002  1.926650332602869E-002  1.950884610447262E-002 
 1.975423717981141E-002  2.000271489489987E-002  2.025431807488649E-002  2.050908603328006E-002 
 2.076705857809237E-002  2.102827601805840E-002  2.129277916893464E-002  2.156060935987652E-002 
 2.183180843989628E-002  2.210641878440193E-002  2.238448330181848E-002  2.266604544029255E-002 
 2.295114919448109E-002  2.323983911242574E-002  2.353216030251353E-002  2.382815844052513E-002 
 2.412787977677183E-002  2.443137114332222E-002  2.473867996131975E-002  2.504985424839248E-002 
 2.536494262615582E-002  2.568399432780989E-002  2.600705920583218E-002  2.633418773976716E-002 
 2.666543104411379E-002  2.700084087631228E-002  2.734046964483136E-002  2.768437041735707E-002 
 2.803259692908477E-002  2.838520359111540E-002  2.874224549895727E-002  2.910377844113492E-002 
 2.946985890790610E-002  2.984054410008854E-002  3.021589193799767E-002  3.059596107049680E-002 
 3.098081088416119E-002  3.137050151255717E-002  3.176509384563827E-002  3.216464953925934E-002 
 3.256923102481038E-002  3.297890151897168E-002  3.339372503359143E-002  3.381376638568774E-002 
 3.423909120757645E-002  3.466976595712629E-002  3.510585792814314E-002  3.554743526088468E-002 
 3.599456695270757E-002  3.644732286884833E-002  3.690577375333997E-002  3.736999124006598E-002 
 3.784004786395309E-002  3.831601707230511E-002  3.879797323627922E-002  3.928599166250657E-002 
 3.978014860485918E-002  4.028052127636464E-002  4.078718786127089E-002  4.130022752726265E-002 
 4.181972043783146E-002  4.234574776480165E-002  4.287839170101310E-002  4.341773547316461E-002 
 4.396386335481793E-002  4.451686067956555E-002  4.507681385436469E-002  4.564381037303798E-002 
 4.621793882994511E-002  4.679928893382562E-002  4.738795152181586E-002  4.798401857364300E-002 
 4.858758322599645E-002  4.919873978708115E-002  4.981758375135328E-002  5.044421181444113E-002 
 5.107872188825464E-002  5.172121311628355E-002  5.237178588908951E-002  5.303054185999195E-002 
 5.369758396095141E-002  5.437301641865343E-002  5.505694477079354E-002  5.574947588256832E-002 
 5.645071796337302E-002  5.716078058370929E-002  5.787977469230637E-002  5.860781263345635E-002 
 5.934500816456881E-002  6.009147647394546E-002  6.084733419877811E-002  6.161269944337430E-002 
 6.238769179761040E-002  6.317243235561863E-002  6.396704373470785E-002  6.477165009452246E-002 
 6.558637715644342E-002  6.641135222323145E-002  6.724670419891933E-002  6.809256360895288E-002 
 6.894906262058560E-002  6.981633506353088E-002  7.069451645087216E-002  7.158374400023798E-002 
 7.248415665524223E-002  7.339589510719388E-002  7.431910181708129E-002  7.525392103783086E-002 
 7.620049883684789E-002  7.715898311883942E-002  7.812952364892434E-002  7.911227207603526E-002 
 8.010738195661309E-002  8.111500877860138E-002  8.213530998574123E-002  8.316844500217180E-002 
 8.421457525734162E-002  8.527386421123113E-002  8.634647737989469E-002  8.743258236132227E-002 
 8.853234886162663E-002  8.964594872156123E-002  9.077355594336951E-002  9.191534671797418E-002 
 9.307149945250692E-002  9.424219479818441E-002  9.542761567853648E-002  9.662794731798717E-002 
 9.784337727079738E-002  9.907409545037021E-002  1.003202941589248E-001  1.015821681175451E-001 
 1.028599144966042E-001  1.041537329465734E-001  1.054638256292182E-001  1.067903972491852E-001 
 1.081336550859892E-001  1.094938090263999E-001  1.108710715972379E-001  1.122656579985821E-001 
 1.136777861373946E-001  1.151076766615706E-001  1.165555529944131E-001  1.180216413695450E-001 
 1.195061708662581E-001  1.210093734453060E-001  1.225314839851505E-001  1.240727403186596E-001 
 1.256333832702715E-001  1.272136566936227E-001  1.288138075096502E-001  1.304340857451751E-001 
 1.320747445719676E-001  1.337360403463077E-001  1.354182326490402E-001  1.371215843261344E-001 
 1.388463615297559E-001  1.405928337598512E-001  1.423612739062598E-001  1.441519582913529E-001 
 1.459651667132081E-001  1.478011824893309E-001  1.496602925009213E-001  1.515427872377012E-001 
 1.534489608433035E-001  1.553791111612316E-001  1.573335397814002E-001  1.593125520872568E-001 
 1.613164573035011E-001  1.633455685444002E-001  1.654002028627131E-001  1.674806812992330E-001 
 1.695873289329478E-001  1.717204749318364E-001  1.738804526043014E-001  1.760675994512480E-001 
 1.782822572188216E-001  1.805247719518033E-001  1.827954940476830E-001  1.850947783114083E-001 
 1.874229840108227E-001  1.897804749328041E-001  1.921676194401048E-001  1.945847905289111E-001 
 1.970323658871237E-001  1.995107279533713E-001  2.020202639767697E-001  2.045613660774275E-001 
 2.071344313077186E-001  2.097398617143194E-001  2.123780644010322E-001  2.150494515923946E-001 
 2.177544406980894E-001  2.204934543781684E-001  2.232669206090911E-001  2.260752727505991E-001 
 2.289189496134285E-001  2.317983955278737E-001  2.347140604132182E-001  2.376663998480312E-001 
 2.406558751413565E-001  2.436829534047913E-001  2.467481076254719E-001  2.498518167399824E-001 
 2.529945657091855E-001  2.561768455940022E-001  2.593991536321392E-001  2.626619933157825E-001 
 2.659658744702718E-001  2.693113133337583E-001  2.726988326378714E-001  2.761289616893947E-001 
 2.796022364529703E-001  2.831191996348473E-001  2.866804007676772E-001  2.902863962963828E-001 
 2.939377496651026E-001  2.976350314052280E-001  3.013788192245542E-001  3.051696980975436E-001 
 3.090082603567333E-001  3.128951057852866E-001  3.168308417107082E-001  3.208160830997451E-001 
 3.248514526544712E-001  3.289375809095899E-001  3.330751063309550E-001  3.372646754153303E-001 
 3.415069427914102E-001  3.458025713221019E-001  3.501522322081035E-001  3.545566050927785E-001 
 3.590163781683496E-001  3.635322482834346E-001  3.681049210519254E-001  3.727351109632459E-001 
 3.774235414939904E-001  3.821709452209669E-001  3.869780639356676E-001  3.918456487601707E-001 
 3.967744602645086E-001  4.017652685855076E-001  4.068188535471201E-001  4.119360047822793E-001 
 4.171175218562755E-001  4.223642143916938E-001  4.276769021949183E-001  4.330564153842255E-001 
 4.385035945194972E-001  4.440192907335544E-001  4.496043658651530E-001  4.552596925936458E-001 
 4.609861545753389E-001  4.667846465815686E-001  4.726560746385067E-001  4.786013561687332E-001 
 4.846214201345841E-001  4.907172071833000E-001  4.968896697940111E-001  5.031397724265565E-001 
 5.094684916721894E-001  5.158768164061687E-001  5.223657479422701E-001  5.289363001892496E-001 
 5.355894998092623E-001  5.423263863782852E-001  5.491480125485525E-001  5.560554442130298E-001 
 5.630497606719698E-001  5.701320548015476E-001  5.773034332246308E-001  5.845650164836893E-001 
 5.919179392158790E-001  5.993633503303388E-001  6.069024131877008E-001  6.145363057818759E-001 
 6.222662209241143E-001  6.300933664293815E-001  6.380189653050895E-001  6.460442559421847E-001 
 6.541704923086582E-001  6.623989441454763E-001  6.707308971649770E-001  6.791676532517736E-001 
 6.877105306661671E-001  6.963608642501349E-001  7.051200056359003E-001  7.139893234571227E-001 
 7.229702035627592E-001  7.320640492335955E-001  7.412722814015202E-001  7.505963388715455E-001 
 7.600376785466183E-001  7.695977756552741E-001  7.792781239821334E-001  7.890802361013185E-001 
 7.990056436127921E-001  8.090558973816685E-001  8.192325677805492E-001  8.295372449348857E-001 
 8.399715389714498E-001  8.505370802699151E-001  8.612355197176024E-001  8.720685289674441E-001 
 8.830378006991729E-001  8.941450488838152E-001  9.053920090514994E-001  9.167804385626306E-001 
 9.283121168824932E-001  9.399888458592827E-001  9.518124500056597E-001  9.637847767838295E-001 
 9.759076968942053E-001  9.881831045677223E-001  1.000612917861800E+000  1.013199078960057E+000 
 1.025943554475772E+000  1.038848335759172E+000  1.051915439208588E+000  1.065146906585518E+000 
 1.078544805333659E+000  1.092111228901953E+000  1.105848297071678E+000  1.119758156287688E+000 
 1.133842979993782E+000  1.148104968972322E+000  1.162546351688103E+000  1.177169384636552E+000 
 1.191976352696323E+000  1.206969569486295E+000  1.222151377727097E+000  1.237524149607159E+000 
 1.253090287153356E+000  1.268852222606356E+000  1.284812418800635E+000  1.300973369549323E+000 
 1.317337600033856E+000  1.333907667198537E+000  1.350686160150076E+000  1.367675700562128E+000 
 1.384878943084951E+000  1.402298575760192E+000  1.419937320440890E+000  1.437797933216796E+000 
 1.455883204844987E+000  1.474195961185952E+000  1.492739063645130E+000  1.511515409620001E+000 
 1.530527932952830E+000  1.549779604389063E+000  1.569273432041534E+000  1.589012461860475E+000 
 1.608999778109450E+000  1.629238503847293E+000  1.649731801416070E+000  1.670482872935225E+000 
 1.691494960801902E+000  1.712771348197575E+000  1.734315359601067E+000  1.756130361307985E+000 
 1.778219761956733E+000  1.800587013061106E+000  1.823235609549590E+000  1.846169090311470E+000 
 1.869391038749769E+000  1.892905083341178E+000  1.916714898203007E+000  1.940824203667264E+000 
 1.965236766861985E+000  1.989956402299830E+000  2.014986972474132E+000  2.040332388462410E+000 
 2.065996610537470E+000  2.091983648786233E+000  2.118297563736288E+000  2.144942466990387E+000 
 2.171922521868877E+000  2.199241944060216E+000  2.226905002279710E+000  2.254916018936480E+000 
 2.283279370808871E+000  2.311999489728323E+000  2.341080863271841E+000  2.370528035463214E+000 
 2.400345607483002E+000  2.430538238387499E+000  2.461110645836718E+000  2.492067606831513E+000 
 2.523413958460031E+000  2.555154598653479E+000  2.587294486951468E+000  2.619838645276941E+000 
 2.652792158720836E+000  2.686160176336684E+000  2.719947911945114E+000  2.754160644948564E+000 
 2.788803721156175E+000  2.823882553619077E+000  2.859402623476220E+000  2.895369480810777E+000 
 2.931788745517384E+000  2.968666108180255E+000  3.006007330962322E+000  3.043818248505627E+000 
 3.082104768842951E+000  3.120872874320998E+000  3.160128622535129E+000  3.199878147275856E+000 
 3.240127659487304E+000  3.280883448237632E+000  3.322151881701755E+000  3.363939408156372E+000 
 3.406252556987495E+000  3.449097939710728E+000  3.492482251004279E+000  3.536412269755059E+000 
 3.580894860117881E+000  3.625936972587979E+000  3.671545645087075E+000  3.717728004063027E+000 
 3.764491265603390E+000  3.811842736562928E+000  3.859789815705301E+000  3.908339994859189E+000 
 3.957500860088845E+000  4.007280092879489E+000  4.057685471337527E+000  4.108724871405879E+000 
 4.160406268094661E+000  4.212737736727239E+000  4.265727454202061E+000  4.319383700270301E+000 
 4.373714858829553E+000  4.428729419233898E+000  4.484435977620310E+000  4.540843238251881E+000 
 4.597960014877855E+000  4.655795232110767E+000  4.714357926820994E+000  4.773657249548714E+000 
 4.833702465933757E+000  4.894502958163355E+000  4.956068226438100E+000  5.018407890456436E+000 
 5.081531690917675E+000  5.145449491044078E+000  5.210171278121963E+000  5.275707165062221E+000 
 5.342067391980540E+000  5.409262327797366E+000  5.477302471858140E+000  5.546198455573811E+000 
 5.615961044081983E+000  5.686601137929065E+000  5.758129774773418E+000  5.830558131110085E+000 
 5.903897524017111E+000  5.978159412923827E+000  6.053355401401484E+000  6.129497238976246E+000 
 6.206596822965156E+000  6.284666200335085E+000  6.363717569585059E+000  6.443763282652374E+000 
 6.524815846842531E+000  6.606887926783599E+000  6.689992346405056E+000  6.774142090941522E+000 
 6.859350308961808E+000  6.945630314423315E+000  7.032995588752446E+000  7.121459782951070E+000 
 7.211036719729492E+000  7.301740395666353E+000  7.393584983395528E+000  7.486584833820727E+000 
 7.580754478357797E+000  7.676108631205262E+000  7.772662191643531E+000  7.870430246362834E+000 
 7.969428071820646E+000  8.069671136628623E+000  8.171175103969556E+000  8.273955834044884E+000 
 8.378029386552761E+000  8.483412023197520E+000  8.590120210230554E+000  8.698170621023158E+000 
 8.807580138671876E+000  8.918365858636406E+000  9.030545091410906E+000  9.144135365228742E+000 
 9.259154428801265E+000  9.375620254091201E+000  9.493551039120671E+000  9.612965210814783E+000 
 9.733881427880831E+000  9.856318583723706E+000  9.980295809398138E+000  1.010583247659784E+001 
 1.023294820068249E+001  1.036166284374261E+001  1.049199651770301E+001  1.062396958746545E+001 
 1.075760267409055E+001  1.089291665801999E+001  1.102993268233907E+001  1.116867215608033E+001 
 1.130915675756883E+001  1.145140843780934E+001  1.159544942391633E+001  1.174130222258695E+001 
 1.188898962361769E+001  1.203853470346549E+001  1.218996082885326E+001  1.234329166042122E+001 