<UPF version="2.0.1">
  <PP_INFO>
    Generated using "atomic" code by A. Dal Corso  v.5.1.2
    Author: ADC
    Generation date: 30Jul2016
    Pseudopotential type: USPP
    Element: Tl
    Functional: PBE

    Suggested minimum cutoff for wavefunctions:  45. Ry
    Suggested minimum cutoff for charge density: 210. Ry
    The Pseudo was generated with a Scalar-Relativistic Calculation
    Local Potential by smoothing AE potential with Bessel fncs, cutoff radius:   2.1000
    Pseudopotential contains additional information for GIPAW reconstruction.

    Valence configuration: 
    nl pn  l   occ       Rcut    Rcut US       E pseu
    6S  1  0  2.00      1.700      2.000    -0.701606
    6P  2  1  1.00      2.200      2.400    -0.174211
    5D  3  2 10.00      1.400      1.600    -1.138177
    Generation configuration:
    6S  1  0  2.00      1.700      2.000    -0.701603
    6S  1  0  0.00      1.700      2.000     4.000000
    6P  2  1  1.00      2.200      2.400    -0.174211
    6P  2  1  0.00      2.200      2.400     6.000000
    5D  3  2 10.00      1.400      1.600    -1.138176
    5D  3  2  0.00      1.400      1.600     7.600000

    Pseudization used: troullier-martins
<PP_INPUTFILE>
 &input
   title='Tl',
   zed=81.,
   rel=1,
   config='[Xe] 4f14 6s2 6p1 5d10',
   iswitch=3,
   dft='PBE'
 /
 &inputp
   lpaw=.false.,
   pseudotype=3,
   file_pseudopw='Tl.pbe-dn-rrkjus_psl.1.0.0.UPF',
   author='ADC',
   lloc=-1,
   rcloc=2.1,
   which_augfun='PSQ',
   rmatch_augfun_nc=.true.,
   nlcc=.true.,
   new_core_ps=.true.,
   rcore=1.6,
   tm=.true.
 /
6
6S  1  0  2.00  0.00  1.70  2.00  0.0
6S  1  0  0.00  4.00  1.70  2.00  0.0
6P  2  1  1.00  0.00  2.20  2.40  0.0
6P  2  1  0.00  6.00  2.20  2.40  0.0
5D  3  2 10.00  0.00  1.40  1.60  0.0
5D  3  2  0.00  7.60  1.40  1.60  0.0
</PP_INPUTFILE>
  </PP_INFO>
  <!--                               -->
  <!-- END OF HUMAN READABLE SECTION -->
  <!--                               -->
  <PP_HEADER generated='Generated using "atomic" code by A. Dal Corso  v.5.1.2'
             author="ADC"
             date="30Jul2016"
             comment=""
             element="Tl"
             pseudo_type="USPP"
             relativistic="scalar"
             is_ultrasoft="T"
             is_paw="F"
             is_coulomb="F"
             has_so="F"
             has_wfc="F"
             has_gipaw="T"
             paw_as_gipaw="F"
             core_correction="T"
             functional="PBE"
             z_valence="1.300000000000000E+001"
             total_psenergy="-1.166852167770308E+002"
             wfc_cutoff="4.454655099537095E+001"
             rho_cutoff="2.101456159857447E+002"
             l_max="2"
             l_max_rho="4"
             l_local="-1"
             mesh_size="1281"
             number_of_wfc="3"
             number_of_proj="6"/>
  <PP_MESH dx="1.250000000000000E-002" mesh="1281" xmin="-7.000000000000000E+000" rmax="1.000000000000000E+002"
zmesh="8.100000000000000E+001">
    <PP_R type="real" size="1281" columns="4">
 1.125780204388292E-005  1.139940776134595E-005  1.154279465946398E-005  1.168798514273153E-005 
 1.183500189745704E-005  1.198386789530752E-005  1.213460639689801E-005  1.228724095542607E-005 
 1.244179542035198E-005  1.259829394112537E-005  1.275676097095848E-005  1.291722127064714E-005 
 1.307969991243963E-005  1.324422228395428E-005  1.341081409214639E-005  1.357950136732492E-005 
 1.375031046721979E-005  1.392326808110040E-005  1.409840123394577E-005  1.427573729066738E-005 
 1.445530396038487E-005  1.463712930075571E-005  1.482124172235927E-005  1.500766999313598E-005 
 1.519644324288248E-005  1.538759096780308E-005  1.558114303511870E-005  1.577712968773363E-005 
 1.597558154896109E-005  1.617652962730815E-005  1.638000532132088E-005  1.658604042449046E-005 
 1.679466713022091E-005  1.700591803685947E-005  1.721982615279011E-005  1.743642490159113E-005 
 1.765574812725771E-005  1.787783009949007E-005  1.810270551904819E-005  1.833040952317391E-005 
 1.856097769108114E-005  1.879444604951520E-005  1.903085107838210E-005  1.927022971644855E-005 
 1.951261936711379E-005  1.975805790425388E-005  2.000658367813959E-005  2.025823552142872E-005 
 2.051305275523375E-005  2.077107519526594E-005  2.103234315805647E-005  2.129689746725608E-005 
 2.156477946001382E-005  2.183603099343606E-005  2.211069445112679E-005  2.238881274981006E-005 
 2.267042934603589E-005  2.295558824297038E-005  2.324433399727132E-005  2.353671172605033E-005 
 2.383276711392234E-005  2.413254642014404E-005  2.443609648584193E-005  2.474346474133135E-005 
 2.505469921352758E-005  2.536984853345011E-005  2.568896194382135E-005  2.601208930676091E-005 
 2.633928111157664E-005  2.667058848265376E-005  2.700606318744303E-005  2.734575764454959E-005 
 2.768972493192350E-005  2.803801879515317E-005  2.839069365586341E-005  2.874780462021869E-005 
 2.910940748753374E-005  2.947555875899227E-005  2.984631564647535E-005  3.022173608150103E-005 
 3.060187872427603E-005  3.098680297286171E-005  3.137656897245504E-005  3.177123762478642E-005 
 3.217087059763578E-005  3.257553033446817E-005  3.298528006419075E-005  3.340018381103243E-005 
 3.382030640454776E-005  3.424571348974677E-005  3.467647153735201E-005  3.511264785418479E-005 
 3.555431059368201E-005  3.600152876654528E-005  3.645437225152403E-005  3.691291180633408E-005 
 3.737721907871377E-005  3.784736661761905E-005  3.832342788455937E-005  3.880547726507630E-005 
 3.929359008036626E-005  3.978784259904971E-005  4.028831204908825E-005  4.079507662985163E-005 
 4.130821552433669E-005  4.182780891153965E-005  4.235393797898438E-005  4.288668493540807E-005 
 4.342613302360652E-005  4.397236653344111E-005  4.452547081500902E-005  4.508553229197955E-005 
 4.565263847509793E-005  4.622687797585901E-005  4.680834052035318E-005  4.739711696328597E-005 
 4.799329930217445E-005  4.859698069172202E-005  4.920825545837396E-005  4.982721911505627E-005 
 5.045396837609959E-005  5.108860117235107E-005  5.173121666647629E-005  5.238191526845358E-005 
 5.304079865126346E-005  5.370796976677493E-005  5.438353286183217E-005  5.506759349454323E-005 
 5.576025855077365E-005  5.646163626084781E-005  5.717183621645982E-005  5.789096938779766E-005 
 5.861914814088244E-005  5.935648625512575E-005  6.010309894110819E-005  6.085910285858089E-005 
 6.162461613469404E-005  6.239975838245449E-005  6.318465071941545E-005  6.397941578660154E-005 
 6.478417776767141E-005  6.559906240832193E-005  6.642419703593606E-005  6.725971057947809E-005 
 6.810573358963916E-005  6.896239825923579E-005  6.982983844386554E-005  7.070818968282204E-005 
 7.159758922027335E-005  7.249817602670681E-005  7.341009082064314E-005  7.433347609062418E-005 
 7.526847611747701E-005  7.621523699685804E-005  7.717390666208100E-005  7.814463490723145E-005 
 7.912757341057264E-005  8.012287575824552E-005  8.113069746826682E-005  8.215119601482931E-005 
 8.318453085290700E-005  8.423086344317071E-005  8.529035727721644E-005  8.636317790311124E-005 
 8.744949295126081E-005  8.854947216060122E-005  8.966328740512212E-005  9.079111272072143E-005 
 9.193312433239924E-005  9.308950068179353E-005  9.426042245506126E-005  9.544607261111198E-005 
 9.664663641019473E-005  9.786230144284561E-005  9.909325765919951E-005  1.003396973986693E-004 
 1.016018154200004E-004  1.028798089317013E-004  1.041738776228584E-004  1.054842236943376E-004 
 1.068110518903782E-004  1.081545695305855E-004  1.095149865423242E-004  1.108925154935199E-004 
 1.122873716258744E-004  1.136997728884956E-004  1.151299399719546E-004  1.165780963427680E-004 
 1.180444682783149E-004  1.195292849021937E-004  1.210327782200226E-004  1.225551831556915E-004 
 1.240967375880690E-004  1.256576823881712E-004  1.272382614567994E-004  1.288387217626482E-004 
 1.304593133808970E-004  1.321002895322831E-004  1.337619066226686E-004  1.354444242831048E-004 
 1.371481054103988E-004  1.388732162081934E-004  1.406200262285602E-004  1.423888084141188E-004 
 1.441798391406846E-004  1.459933982604521E-004  1.478297691457237E-004  1.496892387331864E-004 
 1.515720975687461E-004  1.534786398529271E-004  1.554091634868395E-004  1.573639701187292E-004 
 1.593433651911095E-004  1.613476579884874E-004  1.633771616856906E-004  1.654321933968003E-004 
 1.675130742247029E-004  1.696201293112610E-004  1.717536878881187E-004  1.739140833281449E-004 
 1.761016531975217E-004  1.783167393084923E-004  1.805596877727682E-004  1.828308490556099E-004 
 1.851305780305891E-004  1.874592340350364E-004  1.898171809261905E-004  1.922047871380505E-004 
 1.946224257389443E-004  1.970704744898225E-004  1.995493159032824E-004  2.020593373033386E-004 
 2.046009308859414E-004  2.071744937802588E-004  2.097804281107294E-004  2.124191410598936E-004 
 2.150910449320187E-004  2.177965572175205E-004  2.205361006581980E-004  2.233101033132878E-004 
 2.261189986263479E-004  2.289632254929862E-004  2.318432283294372E-004  2.347594571420031E-004 
 2.377123675973695E-004  2.407024210938024E-004  2.437300848332442E-004  2.467958318943140E-004 
 2.499001413062270E-004  2.530434981236451E-004  2.562263935024659E-004  2.594493247765683E-004 
 2.627127955355207E-004  2.660173157032688E-004  2.693634016178120E-004  2.727515761118820E-004 
 2.761823685946371E-004  2.796563151343824E-004  2.831739585423325E-004  2.867358484574269E-004 
 2.903425414322112E-004  2.939946010198010E-004  2.976925978619367E-004  3.014371097781486E-004 
 3.052287218560420E-004  3.090680265427179E-004  3.129556237373450E-004  3.168921208848943E-004 
 3.208781330710537E-004  3.249142831183372E-004  3.290012016834010E-004  3.331395273555863E-004 
 3.373299067566984E-004  3.415729946420442E-004  3.458694540027386E-004  3.502199561692975E-004 
 3.546251809165362E-004  3.590858165697837E-004  3.636025601124357E-004  3.681761172948606E-004 
 3.728072027446728E-004  3.774965400783962E-004  3.822448620145295E-004  3.870529104880356E-004 
 3.919214367662710E-004  3.968512015663712E-004  4.018429751741164E-004  4.068975375642885E-004 
 4.120156785225442E-004  4.171981977688217E-004  4.224459050822967E-004  4.277596204279139E-004 
 4.331401740845067E-004  4.385884067745304E-004  4.441051697954280E-004  4.496913251526449E-004 
 4.553477456943212E-004  4.610753152476743E-004  4.668749287570998E-004  4.727474924240082E-004 
 4.786939238484198E-004  4.847151521723434E-004  4.908121182249545E-004  4.969857746696031E-004 
 5.032370861526694E-004  5.095670294542907E-004  5.159765936409866E-004  5.224667802202015E-004 
 5.290386032967924E-004  5.356930897314861E-004  5.424312793013262E-004  5.492542248621422E-004 
 5.561629925130595E-004  5.631586617630790E-004  5.702423256997546E-004  5.774150911599874E-004 
 5.846780789029745E-004  5.920324237853269E-004  5.994792749383947E-004  6.070197959478221E-004 
 6.146551650353573E-004  6.223865752429553E-004  6.302152346191903E-004  6.381423664080174E-004 
 6.461692092399059E-004  6.542970173253803E-004  6.625270606509893E-004  6.708606251777468E-004 
 6.792990130420649E-004  6.878435427592148E-004  6.964955494293500E-004  7.052563849461147E-004 
 7.141274182078826E-004  7.231100353316489E-004  7.322056398696139E-004  7.414156530284932E-004 
 7.507415138915799E-004  7.601846796436079E-004  7.697466257984378E-004  7.794288464296095E-004 
 7.892328544037971E-004  7.991601816171920E-004  8.092123792348687E-004  8.193910179331561E-004 
 8.296976881450587E-004  8.401340003087679E-004  8.507015851192912E-004  8.614020937832552E-004 
 8.722371982769090E-004  8.832085916073730E-004  8.943179880771785E-004  9.055671235521252E-004 
 9.169577557325173E-004  9.284916644278077E-004  9.401706518346954E-004  9.519965428187248E-004 
 9.639711851994219E-004  9.760964500390208E-004  9.883742319348220E-004  1.000806449315225E-003 
 1.013395044739491E-003  1.026141985201266E-003  1.039049262435931E-003  1.052118893231813E-003 
 1.065352919745315E-003  1.078753409820005E-003  1.092322457309720E-003  1.106062182405737E-003 
 1.119974731968056E-003  1.134062279860851E-003  1.148327027292142E-003  1.162771203157737E-003 
 1.177397064389502E-003  1.192206896308011E-003  1.207203012979630E-003  1.222387757578102E-003 
 1.237763502750664E-003  1.253332650988779E-003  1.269097635003536E-003  1.285060918105761E-003 
 1.301224994590918E-003  1.317592390128842E-003  1.334165662158387E-003  1.350947400287025E-003 
 1.367940226695481E-003  1.385146796547454E-003  1.402569798404491E-003  1.420211954646079E-003 
 1.438076021895025E-003  1.456164791448180E-003  1.474481089712588E-003  1.493027778647120E-003 
 1.511807756209654E-003  1.530823956809892E-003  1.550079351767868E-003  1.569576949778217E-003 
 1.589319797380299E-003  1.609310979434218E-003  1.629553619602843E-003  1.650050880839883E-003 
 1.670805965884108E-003  1.691822117759784E-003  1.713102620283399E-003  1.734650798576768E-003 
 1.756470019586589E-003  1.778563692610534E-003  1.800935269829968E-003  1.823588246849344E-003 
 1.846526163242409E-003  1.869752603105268E-003  1.893271195616401E-003  1.917085615603741E-003 
 1.941199584118860E-003  1.965616869018399E-003  1.990341285552801E-003  2.015376696962449E-003 
 2.040727015081316E-003  2.066396200948180E-003  2.092388265425558E-003  2.118707269826406E-003 
 2.145357326548705E-003  2.172342599718043E-003  2.199667305838253E-003  2.227335714450258E-003 
 2.255352148799195E-003  2.283720986509929E-003  2.312446660271074E-003  2.341533658527596E-003 
 2.370986526182151E-003  2.400809865305231E-003  2.431008335854248E-003  2.461586656401669E-003 
 2.492549604872290E-003  2.523902019289804E-003  2.555648798532751E-003  2.587794903099973E-003 
 2.620345355885717E-003  2.653305242964453E-003  2.686679714385593E-003  2.720473984978197E-003 
 2.754693335165800E-003  2.789343111791492E-003  2.824428728953364E-003  2.859955668850480E-003 
 2.895929482639479E-003  2.932355791301952E-003  2.969240286522743E-003  3.006588731579269E-003 
 3.044406962242057E-003  3.082700887686589E-003  3.121476491416623E-003  3.160739832199137E-003 
 3.200497045011008E-003  3.240754341997622E-003  3.281518013443540E-003  3.322794428755356E-003 
 3.364590037456946E-003  3.406911370197200E-003  3.449765039770462E-003  3.493157742149791E-003 
 3.537096257533211E-003  3.581587451403153E-003  3.626638275599172E-003  3.672255769404206E-003 
 3.718447060644473E-003  3.765219366803201E-003  3.812579996148394E-003  3.860536348874739E-003 
 3.909095918259918E-003  3.958266291835443E-003  4.008055152572219E-003  4.058470280081039E-003 
 4.109519551828144E-003  4.161210944366105E-003  4.213552534580172E-003  4.266552500950303E-003 
 4.320219124829080E-003  4.374560791735664E-003  4.429585992666072E-003  4.485303325419895E-003 
 4.541721495943733E-003  4.598849319691519E-003  4.656695723001939E-003  4.715269744493199E-003 
 4.774580536475327E-003  4.834637366380234E-003  4.895449618209789E-003  4.957026794002059E-003 
 5.019378515316041E-003  5.082514524735047E-003  5.146444687388992E-003  5.211178992495871E-003 
 5.276727554922553E-003  5.343100616765278E-003  5.410308548949995E-003  5.478361852852838E-003 
 5.547271161941009E-003  5.617047243434243E-003  5.687700999987236E-003  5.759243471393193E-003 
 5.831685836308823E-003  5.905039414001038E-003  5.979315666115588E-003  6.054526198467980E-003 
 6.130682762856911E-003  6.207797258900505E-003  6.285881735895670E-003  6.364948394700794E-003 
 6.445009589642178E-003  6.526077830444416E-003  6.608165784185065E-003  6.691286277273917E-003 
 6.775452297457118E-003  6.860676995846564E-003  6.946973688974767E-003  7.034355860875593E-003 
 7.122837165191195E-003  7.212431427305383E-003  7.303152646503894E-003  7.395014998161800E-003 
 7.488032835958437E-003  7.582220694120221E-003  7.677593289691609E-003  7.774165524834696E-003 
 7.871952489157700E-003  7.970969462072741E-003  8.071231915183301E-003  8.172755514701657E-003 
 8.275556123896785E-003  8.379649805573023E-003  8.485052824579904E-003  8.591781650353606E-003 
 8.699852959490292E-003  8.809283638351888E-003  8.920090785704601E-003  9.032291715390639E-003 
 9.145903959033556E-003  9.260945268777557E-003  9.377433620061345E-003  9.495387214426804E-003 
 9.614824482363024E-003  9.735764086186134E-003  9.858224922955275E-003  9.982226127425345E-003 
 1.010778707503682E-002  1.023492738494321E-002  1.036366692307663E-002  1.049402580525183E-002 
 1.062602440030936E-002  1.075968333329825E-002  1.089502348869871E-002  1.103206601368538E-002 
 1.117083232143160E-002  1.131134409445528E-002  1.145362328800683E-002  1.159769213349970E-002 
 1.174357314198412E-002  1.189128910766447E-002  1.204086311146090E-002  1.219231852461583E-002 
 1.234567901234568E-002  1.250096853753870E-002  1.265821136449913E-002  1.281743206273859E-002 
 1.297865551081512E-002  1.314190690022049E-002  1.330721173931644E-002  1.347459585732040E-002 
 1.364408540834133E-002  1.381570687546644E-002  1.398948707489909E-002  1.416545316014904E-002 
 1.434363262627510E-002  1.452405331418137E-002  1.470674341496740E-002  1.489173147433310E-002 
 1.507904639703914E-002  1.526871745142327E-002  1.546077427397364E-002  1.565524687395951E-002 
 1.585216563812026E-002  1.605156133541347E-002  1.625346512182249E-002  1.645790854522473E-002 
 1.666492355032104E-002  1.687454248362711E-002  1.708679809852780E-002  1.730172356039474E-002 
 1.751935245176862E-002  1.773971877760649E-002  1.796285697059508E-002  1.818880189653106E-002 
 1.841758885976878E-002  1.864925360873671E-002  1.888383234152321E-002  1.912136171153251E-002 
 1.936187883321196E-002  1.960542128785116E-002  1.985202712945412E-002  2.010173489068532E-002 
 2.035458358889047E-002  2.061061273219313E-002  2.086986232566780E-002  2.113237287759093E-002 
 2.139818540577033E-002  2.166734144395430E-002  2.193988304832147E-002  2.221585280405197E-002 
 2.249529383198160E-002  2.277824979533952E-002  2.306476490657065E-002  2.335488393424407E-002 
 2.364865221004811E-002  2.394611563587352E-002  2.424732069098579E-002  2.455231443928755E-002 
 2.486114453667256E-002  2.517385923847180E-002  2.549050740699367E-002  2.581113851915873E-002 
 2.613580267423055E-002  2.646455060164395E-002  2.679743366893140E-002  2.713450388974942E-002 
 2.747581393200579E-002  2.782141712608899E-002  2.817136747320129E-002  2.852571965379636E-002 
 2.888452903612336E-002  2.924785168487829E-002  2.961574436996417E-002  2.998826457536159E-002 
 3.036547050811050E-002  3.074742110740534E-002  3.113417605380432E-002  3.152579577855465E-002 
 3.192234147303515E-002  3.232387509831731E-002  3.273045939484701E-002  3.314215789224780E-002 
 3.355903491924747E-002  3.398115561372972E-002  3.440858593291175E-002  3.484139266365061E-002 
 3.527964343287859E-002  3.572340671816989E-002  3.617275185844080E-002  3.662774906478356E-002 
 3.708846943143743E-002  3.755498494689711E-002  3.802736850516088E-002  3.850569391712093E-002 
 3.899003592209591E-002  3.948047019950957E-002  3.997707338071559E-002  4.047992306097128E-002 
 4.098909781156236E-002  4.150467719207939E-002  4.202674176284960E-002  4.255537309752441E-002 
 4.309065379582520E-002  4.363266749645029E-002  4.418149889014297E-002  4.473723373292519E-002 
 4.529995885949687E-002  4.586976219680376E-002  4.644673277777672E-002  4.703096075524275E-002 
 4.762253741601202E-002  4.822155519514142E-002  4.882810769037749E-002  4.944228967678184E-002 
 5.006419712153921E-002  5.069392719895322E-002  5.133157830562976E-002  5.197725007585136E-002 
 5.263104339714595E-002  5.329306042604993E-002  5.396340460407107E-002  5.464218067385108E-002 
 5.532949469553166E-002  5.602545406332726E-002  5.673016752230482E-002  5.744374518537616E-002 
 5.816629855050302E-002  5.889794051811855E-002  5.963878540876894E-002  6.038894898097539E-002 
 6.114854844932238E-002  6.191770250277238E-002  6.269653132321089E-002  6.348515660422582E-002 
 6.428370157012162E-002  6.509229099517395E-002  6.591105122312568E-002  6.674011018692798E-002 
 6.757959742873093E-002  6.842964412012376E-002  6.929038308263154E-002  7.016194880846849E-002 
 7.104447748155224E-002  7.193810699878370E-002  7.284297699159281E-002  7.375922884775706E-002 
 7.468700573349321E-002  7.562645261582700E-002  7.657771628524533E-002  7.754094537863168E-002 
 7.851629040249172E-002  7.950390375646993E-002  8.050393975716189E-002  8.151655466222758E-002 
 8.254190669480582E-002  8.358015606823795E-002  8.463146501110103E-002  8.569599779255599E-002 
 8.677392074801606E-002  8.786540230513576E-002  8.897061301012921E-002  9.008972555441774E-002 
 9.122291480161297E-002  9.237035781484057E-002  9.353223388440554E-002  9.470872455580774E-002 
 9.590001365810837E-002  9.710628733265299E-002  9.832773406215778E-002  9.956454470015895E-002 
 1.008169125008351E-001  1.020850331492034E-001  1.033691047916946E-001  1.046693280671158E-001 
 1.059859061379987E-001  1.073190447223457E-001  1.086689521257730E-001  1.100358392740585E-001 
 1.114199197461004E-001  1.128214098072880E-001  1.142405284432949E-001  1.156774973942955E-001 
 1.171325411896114E-001  1.186058871827964E-001  1.200977655871591E-001  1.216084095117356E-001 
 1.231380549977127E-001  1.246869410553093E-001  1.262553097011236E-001  1.278434059959468E-001 
 1.294514780830564E-001  1.310797772269878E-001  1.327285578527945E-001  1.343980775858043E-001 
 1.360885972918717E-001  1.378003811181403E-001  1.395336965343159E-001  1.412888143744583E-001 
 1.430660088793013E-001  1.448655577391014E-001  1.466877421370296E-001  1.485328467931054E-001 
 1.504011600086849E-001  1.522929737115095E-001  1.542085835013187E-001  1.561482886960398E-001 
 1.581123923785561E-001  1.601012014440634E-001  1.621150266480250E-001  1.641541826547258E-001 
 1.662189880864409E-001  1.683097655732193E-001  1.704268418032975E-001  1.725705475741438E-001 
 1.747412178441458E-001  1.769391917849500E-001  1.791648128344559E-001  1.814184287504808E-001 
 1.837003916650969E-001  1.860110581396517E-001  1.883507892204837E-001  1.907199504953337E-001 
 1.931189121504713E-001  1.955480490285362E-001  1.980077406871071E-001  2.004983714580106E-001 
 2.030203305073711E-001  2.055740118964215E-001  2.081598146430747E-001  2.107781427842699E-001 
 2.134294054391070E-001  2.161140168727690E-001  2.188323965612549E-001  2.215849692569217E-001 
 2.243721650548527E-001  2.271944194600626E-001  2.300521734555434E-001  2.329458735711714E-001 
 2.358759719534774E-001  2.388429264362940E-001  2.418472006122965E-001  2.448892639054362E-001 
 2.479695916442922E-001  2.510886651363411E-001  2.542469717431609E-001  2.574450049565856E-001 
 2.606832644758102E-001  2.639622562854734E-001  2.672824927347170E-001  2.706444926172404E-001 
 2.740487812523662E-001  2.774958905671188E-001  2.809863591793423E-001  2.845207324818593E-001 
 2.880995627276879E-001  2.917234091163364E-001  2.953928378811747E-001  2.991084223779133E-001 
 3.028707431741898E-001  3.066803881402821E-001  3.105379525409679E-001  3.144440391285320E-001 
 3.183992582369514E-001  3.224042278772592E-001  3.264595738341087E-001  3.305659297635575E-001 
 3.347239372920729E-001  3.389342461167913E-001  3.431975141070332E-001  3.475144074070945E-001 
 3.518856005403372E-001  3.563117765145807E-001  3.607936269288264E-001  3.653318520813207E-001 
 3.699271610789756E-001  3.745802719481723E-001  3.792919117469498E-001  3.840628166786131E-001 
 3.888937322067650E-001  3.937854131717839E-001  3.987386239087743E-001  4.037541383669898E-001 
 4.088327402307693E-001  4.139752230419872E-001  4.191823903240439E-001  4.244550557074226E-001 
 4.297940430568154E-001  4.352001865998585E-001  4.406743310574804E-001  4.462173317758881E-001 
 4.518300548602227E-001  4.575133773098839E-001  4.632681871555679E-001  4.690953835980223E-001 
 4.749958771485449E-001  4.809705897712595E-001  4.870204550271673E-001  4.931464182200239E-001 
 4.993494365440424E-001  5.056304792334544E-001  5.119905277139607E-001  5.184305757560742E-001 
 5.249516296304048E-001  5.315547082648884E-001  5.382408434039939E-001  5.450110797699418E-001 
 5.518664752259365E-001  5.588081009414663E-001  5.658370415596731E-001  5.729543953668269E-001 
 5.801612744639426E-001  5.874588049405396E-001  5.948481270506026E-001  6.023303953907464E-001 
 6.099067790806196E-001  6.175784619455903E-001  6.253466427017119E-001  6.332125351430333E-001 
 6.411773683312529E-001  6.492423867877587E-001  6.574088506880950E-001  6.656780360588589E-001 
 6.740512349770893E-001  6.825297557721541E-001  6.911149232301748E-001  6.998080788010355E-001 
 7.086105808079782E-001  7.175238046598517E-001  7.265491430660180E-001  7.356880062539628E-001 
 7.449418221896550E-001  7.543120368006589E-001  7.638001142020726E-001  7.734075369252953E-001 
 7.831358061496709E-001  7.929864419370611E-001  8.029609834693459E-001  8.130609892889346E-001 
 8.232880375422865E-001  8.336437262264956E-001  8.441296734389904E-001  8.547475176303536E-001 
 8.654989178603439E-001  8.763855540571226E-001  8.874091272797416E-001  8.985713599839474E-001 
 9.098739962913067E-001  9.213188022617397E-001  9.329075661694652E-001  9.446420987824183E-001 
 9.565242336451971E-001  9.685558273655451E-001  9.807387599044609E-001  9.930749348699421E-001 
 1.005566279814422E+000  1.018214746535964E+000  1.031022311383226E+000  1.043990975564272E+000 
 1.057122765459267E+000  1.070419732937097E+000  1.083883955675987E+000  1.097517537488127E+000 
 1.111322608648417E+000  1.125301326227314E+000  1.139455874427875E+000  1.153788464927059E+000 
 1.168301337221286E+000  1.182996758976381E+000  1.197877026381894E+000  1.212944464509877E+000 
 1.228201427678197E+000  1.243650299818384E+000  1.259293494848144E+000  1.275133457048529E+000 
 1.291172661445855E+000  1.307413614198445E+000  1.323858852988204E+000  1.340510947417155E+000 
 1.357372499408934E+000  1.374446143615338E+000  1.391734547828016E+000  1.409240413395297E+000 
 1.426966475644292E+000  1.444915504308295E+000  1.463090303959547E+000  1.481493714447476E+000 
 1.500128611342407E+000  1.518997906384896E+000  1.538104547940685E+000  1.557451521461385E+000 
 1.577041849950976E+000  1.596878594438135E+000  1.616964854454551E+000  1.637303768519218E+000 
 1.657898514628834E+000  1.678752310754384E+000  1.699868415343935E+000  1.721250127831792E+000 
 1.742900789154037E+000  1.764823782270543E+000  1.787022532693594E+000  1.809500509023101E+000 
 1.832261223488600E+000  1.855308232498037E+000  1.878645137193452E+000  1.902275584013690E+000 
 1.926203265264137E+000  1.950431919693672E+000  1.974965333078848E+000  1.999807338815412E+000 
 2.024961818517308E+000  2.050432702623162E+000  2.076223971010438E+000  2.102339653617298E+000 
 2.128783831072276E+000  2.155560635331907E+000  2.182674250326326E+000  2.210128912613045E+000 
 2.237928912038906E+000  2.266078592410370E+000  2.294582352172275E+000  2.323444645095068E+000 
 2.352669980970741E+000  2.382262926317489E+000  2.412228105093221E+000  2.442570199418096E+000 
 2.473293950306072E+000  2.504404158405739E+000  2.535905684750412E+000  2.567803451517662E+000 
 2.600102442798454E+000  2.632807705375877E+000  2.665924349513754E+000  2.699457549755113E+000 
 2.733412545730706E+000  2.767794642977744E+000  2.802609213768866E+000  2.837861697951590E+000 
 2.873557603798300E+000  2.909702508866896E+000  2.946302060872344E+000  2.983361978569096E+000 
 3.020888052644696E+000  3.058886146624572E+000  3.097362197788205E+000  3.136322218096880E+000 
 3.175772295133025E+000  3.215718593051442E+000  3.256167353542460E+000  3.297124896807187E+000 
 3.338597622545099E+000  3.380592010953957E+000  3.423114623742395E+000  3.466172105155179E+000 
 3.509771183011369E+000  3.553918669755597E+000  3.598621463522471E+000  3.643886549214473E+000 
 3.689720999593340E+000  3.736131976385183E+000  3.783126731399563E+000  3.830712607662548E+000 
 3.878897040564126E+000  3.927687559019976E+000  3.977091786647859E+000  4.027117442958868E+000 
 4.077772344563567E+000  4.129064406393396E+000  4.181001642937377E+000  4.233592169494375E+000 
 4.286844203441174E+000  4.340766065516405E+000  4.395366181120729E+000  4.450653081633305E+000 
 4.506635405744801E+000  4.563321900807274E+000  4.620721424200891E+000  4.678842944717970E+000 
 4.737695543964349E+000  4.797288417778380E+000  4.857630877667858E+000  4.918732352264889E+000 
 4.980602388799199E+000  5.043250654589883E+000  5.106686938555911E+000  5.170921152745732E+000 
 5.235963333885983E+000  5.301823644949802E+000  5.368512376744798E+000  5.436039949520974E+000 
 5.504416914598982E+000  5.573653956018710E+000  5.643761892208753E+000  5.714751677676785E+000 
 5.786634404721197E+000  5.859421305164357E+000  5.933123752107523E+000  6.007753261707991E+000 
 6.083321494978478E+000  6.159840259609161E+000  6.237321511812710E+000  6.315777358192398E+000 
 6.395220057633852E+000  6.475662023220499E+000  6.557115824173100E+000  6.639594187813795E+000 
 6.723110001554685E+000  6.807676314911590E+000  6.893306341543037E+000  6.980013461314879E+000 
 7.067811222391010E+000  7.156713343350202E+000  7.246733715329738E+000  7.337886404195904E+000 
 7.430185652741756E+000  7.523645882912692E+000  7.618281698059798E+000  7.714107885221740E+000 
 7.811139417435236E+000  7.909391456074578E+000  8.008879353220728E+000  8.109618654059997E+000 
 8.211625099313109E+000  8.314914627694684E+000  8.419503378403649E+000  8.525407693645116E+000 
 8.632644121183775E+000  8.741229416929622E+000  8.851180547556048E+000  8.962514693150881E+000 
 9.075249249900912E+000  9.189401832809963E+000  9.304990278451374E+000  9.422032647754959E+000 
 9.540547228829011E+000  9.660552539817983E+000  9.782067331795828E+000  9.905110591696037E+000 
 1.002970154527832E+001  1.015585966013262E+001  1.028360464872110E+001  1.041295647145807E+001 
 1.054393533982903E+001  1.067656171954866E+001  1.081085633375859E+001  1.094684016626555E+001 
 1.108453446481998E+001  1.122396074443620E+001  1.136514079075409E+001  1.150809666344307E+001 
 1.165285069964913E+001  1.179942551748491E+001  1.194784401956391E+001  1.209812939657906E+001 