<UPF version="2.0.1">
  <PP_INFO>
    Generated using "atomic" code by A. Dal Corso  v.5.1.2
    Author: ADC
    Generation date: 30Jul2016
    Pseudopotential type: PAW
    Element: Tm
    Functional:  SLA  PW   PBX  PBC

    Suggested minimum cutoff for wavefunctions: 137. Ry
    Suggested minimum cutoff for charge density: 579. Ry
    The Pseudo was generated with a Scalar-Relativistic Calculation
    Local Potential by smoothing AE potential with Bessel fncs, cutoff radius:   1.7000
    Pseudopotential contains additional information for GIPAW reconstruction.

    Valence configuration: 
    nl pn  l   occ       Rcut    Rcut US       E pseu
    5S  1  0  2.00      1.200      1.500    -3.923178
    6S  2  0  2.00      1.200      1.500    -0.284820
    5P  2  1  6.00      1.200      1.700    -1.977348
    4D  3  2 10.00      1.000      1.100   -12.613066
    5D  4  2  0.00      1.000      1.100    -0.058045
    4F  4  3 13.00      1.000      1.200    -0.227434
    Generation configuration:
    5S  1  0  2.00      1.200      1.500    -3.922946
    6S  2  0  2.00      1.200      1.500    -0.284744
    5P  2  1  6.00      1.200      1.700    -1.977135
    6P  3  1  0.00      1.200      1.700     0.300000
    4D  3  2 10.00      1.000      1.100   -12.612776
    5D  4  2  0.00      1.000      1.100    -0.057947
    4F  4  3 13.00      1.000      1.200    -0.227158
    4F  4  3  0.00      1.000      1.200     1.000000

    Pseudization used: troullier-martins
<PP_INPUTFILE>
 &input
   title='Tm',
   zed=69.0,
   rel=1,
   config='[Xe] 4f13.0 5d0.0 6s2. 6p0.',
   iswitch=3,
   dft='PBE'
 /
 &inputp
   lpaw=.true.,
   pseudotype=3,
   file_pseudopw='Tm.pbe-spdfn-kjpaw_psl.1.0.0.UPF',
   author='ADC',
   lloc=-1,
   rcloc=1.7,
   which_augfun='PSQ',
   rmatch_augfun_nc=.true.,
   nlcc=.true.,
   new_core_ps=.true.,
   rcore=1.2,
   tm=.true.
 /
8
5S  1  0  2.00  0.00  1.20  1.50  0.0
6S  2  0  2.00  0.00  1.20  1.50  0.0
5P  2  1  6.00  0.00  1.20  1.70  0.0
6P  3  1  0.00  0.30  1.20  1.70  0.0
4D  3  2 10.00  0.00  1.00  1.10  0.0
5D  4  2  0.00  0.00  1.00  1.10  0.0
4F  4  3 13.00  0.00  1.00  1.20  0.0
4F  4  3  0.00  1.00  1.00  1.20  0.0
</PP_INPUTFILE>
  </PP_INFO>
  <!--                               -->
  <!-- END OF HUMAN READABLE SECTION -->
  <!--                               -->
  <PP_HEADER generated='Generated using "atomic" code by A. Dal Corso  v.5.1.2'
             author="ADC"
             date="30Jul2016"
             comment=""
             element="Tm"
             pseudo_type="PAW"
             relativistic="scalar"
             is_ultrasoft="T"
             is_paw="T"
             is_coulomb="F"
             has_so="F"
             has_wfc="T"
             has_gipaw="T"
             paw_as_gipaw="T"
             core_correction="T"
             functional=" SLA  PW   PBX  PBC"
             z_valence="3.300000000000000E+001"
             total_psenergy="-1.665231088879943E+003"
             wfc_cutoff="1.371249747454258E+002"
             rho_cutoff="5.791119778229234E+002"
             l_max="3"
             l_max_rho="6"
             l_local="-1"
             mesh_size="1269"
             number_of_wfc="6"
             number_of_proj="8"/>
  <PP_MESH dx="1.250000000000000E-002" mesh="1269" xmin="-7.000000000000000E+000" rmax="1.000000000000000E+002"
zmesh="6.900000000000000E+001">
    <PP_R type="real" size="1269" columns="4">
 1.321568066021038E-005  1.338191345897134E-005  1.355023720893597E-005  1.372067821103267E-005 
 1.389326309701478E-005  1.406801883362187E-005  1.424497272679331E-005  1.442415242593495E-005 
 1.460558592823928E-005  1.478930158306021E-005  1.497532809634257E-005  1.516369453510752E-005 
 1.535443033199435E-005  1.554756528985937E-005  1.574312958643272E-005  1.594115377903360E-005 
 1.614166880934498E-005  1.634470600824829E-005  1.655029710071895E-005  1.675847421078345E-005 
 1.696926986653876E-005  1.718271700523497E-005  1.739884897842175E-005  1.761769955715963E-005 
 1.783930293729683E-005  1.806369374481231E-005  1.829090704122630E-005  1.852097832907862E-005 
 1.875394355747606E-005  1.898983912770957E-005  1.922870189894190E-005  1.947056919396706E-005 
 1.971547880504194E-005  1.996346899979155E-005  2.021457852718839E-005  2.046884662360698E-005 
 2.072631301895470E-005  2.098701794287965E-005  2.125100213105657E-005  2.151830683155198E-005 
 2.178897381126916E-005  2.206304536247437E-005  2.234056430940507E-005  2.262157401496134E-005 
 2.290611838748141E-005  2.319424188760238E-005  2.348598953520734E-005  2.378140691645980E-005 
 2.408054019092658E-005  2.438343609879045E-005  2.469014196815325E-005  2.500070572243105E-005 
 2.531517588784231E-005  2.563360160099015E-005  2.595603261654014E-005  2.628251931499442E-005 
 2.661311271056387E-005  2.694786445913914E-005  2.728682686636199E-005  2.763005289579821E-005 
 2.797759617721318E-005  2.832951101495170E-005  2.868585239642314E-005  2.904667600069332E-005 
 2.941203820718455E-005  2.978199610448491E-005  3.015660749926854E-005  3.053593092532803E-005 
 3.092002565272041E-005  3.130895169702833E-005  3.170276982873746E-005  3.210154158273213E-005 
 3.250532926791019E-005  3.291419597691894E-005  3.332820559601357E-005  3.374742281503933E-005 
 3.417191313753961E-005  3.460174289099092E-005  3.503697923716672E-005  3.547769018263164E-005 
 3.592394458936751E-005  3.637581218553332E-005  3.683336357636027E-005  3.729667025518406E-005 
 3.776580461461592E-005  3.824083995785394E-005  3.872185051013697E-005  3.920891143034241E-005 
 3.970209882272997E-005  4.020148974883317E-005  4.070716223950018E-005  4.121919530708649E-005 
 4.173766895780062E-005  4.226266420420533E-005  4.279426307787604E-005  4.333254864221826E-005 
 4.387760500544660E-005  4.442951733372671E-005  4.498837186448273E-005  4.555425591987218E-005 
 4.612725792042996E-005  4.670746739888444E-005  4.729497501414708E-005  4.788987256547800E-005 
 4.849225300683003E-005  4.910221046137263E-005  4.971984023619905E-005  5.034523883721817E-005 
 5.097850398423375E-005  5.161973462621347E-005  5.226903095674972E-005  5.292649442971512E-005 
 5.359222777511496E-005  5.426633501513885E-005  5.494892148041461E-005  5.564009382646614E-005 
 5.633996005037870E-005  5.704862950767367E-005  5.776621292939551E-005  5.849282243941389E-005 
 5.922857157194300E-005  5.997357528928169E-005  6.072794999977651E-005  6.149181357601073E-005 
 6.226528537322231E-005  6.304848624795318E-005  6.384153857693342E-005  6.464456627620292E-005 
 6.545769482047342E-005  6.628105126273440E-005  6.711476425410501E-005  6.795896406393639E-005 
 6.881378260016635E-005  6.967935342993023E-005  7.055581180043135E-005  7.144329466007321E-005 
 7.234194067985822E-005  7.325189027505528E-005  7.417328562713987E-005  7.510627070601050E-005 
 7.605099129248384E-005  7.700759500107356E-005  7.797623130305536E-005  7.895705154982211E-005 
 7.995020899653292E-005  8.095585882605941E-005  8.197415817323345E-005  8.300526614939978E-005 
 8.404934386727741E-005  8.510655446613409E-005  8.617706313727672E-005  8.726103714986317E-005 
 8.835864587703824E-005  8.947006082239857E-005  9.059545564679075E-005  9.173500619544561E-005 
 9.288889052545483E-005  9.405728893359257E-005  9.524038398448714E-005  9.643836053914745E-005 
 9.765140578384735E-005  9.887970925937431E-005  1.001234628906454E-004  1.013828610166958E-004 
 1.026581004210453E-004  1.039493803624449E-004  1.052569026060129E-004  1.065808714547599E-004 
 1.079214937815122E-004  1.092789790612359E-004  1.106535394037676E-004  1.120453895869575E-004 
 1.134547470902286E-004  1.148818321285579E-004  1.163268676868864E-004  1.177900795549596E-004 
 1.192716963626091E-004  1.207719496154755E-004  1.222910737311816E-004  1.238293060759616E-004 
 1.253868870017483E-004  1.269640598837308E-004  1.285610711583806E-004  1.301781703619582E-004 
 1.318156101695047E-004  1.334736464343209E-004  1.351525382279468E-004  1.368525478806408E-004 
 1.385739410223696E-004  1.403169866243144E-004  1.420819570408961E-004  1.438691280523335E-004 
 1.456787789077331E-004  1.475111923687227E-004  1.493666547536340E-004  1.512454559822392E-004 
 1.531478896210530E-004  1.550742529292019E-004  1.570248469048718E-004  1.589999763323404E-004 
 1.609999498295986E-004  1.630250798965749E-004  1.650756829639620E-004  1.671520794426612E-004 
 1.692545937738472E-004  1.713835544796611E-004  1.735392942145453E-004  1.757221498172188E-004 
 1.779324623633107E-004  1.801705772186535E-004  1.824368440932463E-004  1.847316170958995E-004 
 1.870552547895634E-004  1.894081202473548E-004  1.917905811092890E-004  1.942030096397222E-004 
 1.966457827855208E-004  1.991192822349586E-004  2.016238944773568E-004  2.041600108634744E-004 
 2.067280276666559E-004  2.093283461447519E-004  2.119613726028148E-004  2.146275184565855E-004 
 2.173272002967785E-004  2.200608399541731E-004  2.228288645655280E-004  2.256317066403201E-004 
 2.284698041283259E-004  2.313436004880525E-004  2.342535447560271E-004  2.372000916169627E-004 
 2.401837014748008E-004  2.432048405246516E-004  2.462639808256389E-004  2.493616003746577E-004 
 2.524981831810654E-004  2.556742193423067E-004  2.588902051204932E-004  2.621466430199466E-004 
 2.654440418657127E-004  2.687829168830708E-004  2.721637897780349E-004  2.755871888188733E-004 
 2.790536489186512E-004  2.825637117188115E-004  2.861179256738084E-004  2.897168461368033E-004 
 2.933610354464404E-004  2.970510630147139E-004  3.007875054159383E-004  3.045709464768410E-004 
 3.084019773677852E-004  3.122811966951416E-004  3.162092105948228E-004  3.201866328269920E-004 
 3.242140848719652E-004  3.282921960273184E-004  3.324216035062164E-004  3.366029525369793E-004 
 3.408368964639001E-004  3.451240968493316E-004  3.494652235770561E-004  3.538609549569570E-004 
 3.583119778310058E-004  3.628189876805818E-004  3.673826887351441E-004  3.720037940822672E-004 
 3.766830257790630E-004  3.814211149650045E-004  3.862188019761664E-004  3.910768364609056E-004 
 3.959959774969938E-004  4.009769937102257E-004  4.060206633945192E-004  4.111277746335232E-004 
 4.162991254237599E-004  4.215355237993112E-004  4.268377879580767E-004  4.322067463896190E-004 
 4.376432380046159E-004  4.431481122659434E-004  4.487222293214042E-004  4.543664601381288E-004 
 4.600816866386660E-004  4.658688018387836E-004  4.717287099870062E-004  4.776623267059039E-004 
 4.836705791351606E-004  4.897544060764429E-004  4.959147581400875E-004  5.021525978936381E-004 
 5.084689000122469E-004  5.148646514309705E-004  5.213408514989807E-004  5.278985121357136E-004 
 5.345386579889858E-004  5.412623265950959E-004  5.480705685409433E-004  5.549644476281835E-004 
 5.619450410394494E-004  5.690134395066640E-004  5.761707474814684E-004  5.834180833077950E-004 
 5.907565793966120E-004  5.981873824028630E-004  6.057116534046365E-004  6.133305680845843E-004 
 6.210453169136258E-004  6.288571053369619E-004  6.367671539624264E-004  6.447766987512104E-004 
 6.528869912109830E-004  6.610992985914407E-004  6.694149040823206E-004  6.778351070138983E-004 
 6.863612230600134E-004  6.949945844436445E-004  7.037365401450721E-004  7.125884561126607E-004 
 7.215517154762891E-004  7.306277187634693E-004  7.398178841181800E-004  7.491236475224552E-004 
 7.585464630207591E-004  7.680878029471855E-004  7.777491581555092E-004  7.875320382521375E-004 
 7.974379718319892E-004  8.074685067173391E-004  8.176252101996718E-004  8.279096692845694E-004 
 8.383234909396882E-004  8.488683023458487E-004  8.595457511512858E-004  8.703575057291006E-004 
 8.813052554379416E-004  8.923907108859744E-004  9.036156041981661E-004  9.149816892869330E-004 
 9.264907421261966E-004  9.381445610288776E-004  9.499449669278893E-004  9.618938036606615E-004 
 9.739929382572429E-004  9.862442612320319E-004  9.986496868791678E-004  1.011211153571647E-003 
 1.023930624064197E-003  1.036810085799960E-003  1.049851551221036E-003  1.063057058082929E-003 
 1.076428669772955E-003  1.089968475632644E-003  1.103678591284208E-003  1.117561158961112E-003 
 1.131618347842800E-003  1.145852354393633E-003  1.160265402706095E-003  1.174859744848308E-003 
 1.189637661215925E-003  1.204601460888443E-003  1.219753481990006E-003  1.235096092054737E-003 
 1.250631688396674E-003  1.266362698484354E-003  1.282291580320106E-003  1.298420822824126E-003 
 1.314752946223370E-003  1.331290502445346E-003  1.348036075516862E-003  1.364992281967778E-003 
 1.382161771239850E-003  1.399547226100708E-003  1.417151363063044E-003  1.434976932809077E-003 
 1.453026720620344E-003  1.471303546812914E-003  1.489810267178064E-003  1.508549773428502E-003 
 1.527524993650208E-003  1.546738892759945E-003  1.566194472968541E-003  1.585894774249985E-003 
 1.605842874816434E-003  1.626041891599185E-003  1.646494980735707E-003  1.667205338062789E-003 
 1.688176199615899E-003  1.709410842134820E-003  1.730912583575647E-003  1.752684783629227E-003 
 1.774730844246115E-003  1.797054210168135E-003  1.819658369466628E-003  1.842546854087472E-003 
 1.865723240402960E-003  1.889191149770604E-003  1.912954249098990E-003  1.937016251420732E-003 
 1.961380916472648E-003  1.986052051283224E-003  2.011033510767468E-003  2.036329198329249E-003 
 2.061943066471213E-003  2.087879117412366E-003  2.114141403713441E-003  2.140734028910099E-003 
 2.167661148154132E-003  2.194926968862706E-003  2.222535751375775E-003  2.250491809621783E-003 
 2.278799511791705E-003  2.307463281021599E-003  2.336487596083723E-003  2.365876992086354E-003 
 2.395636061182414E-003  2.425769453286994E-003  2.456281876803916E-003  2.487178099361433E-003 
 2.518462948557176E-003  2.550141312712486E-003  2.582218141636210E-003  2.614698447398128E-003 
 2.647587305112098E-003  2.680889853729048E-003  2.714611296839957E-003  2.748756903488918E-003 
 2.783332008996438E-003  2.818342015793097E-003  2.853792394263682E-003  2.889688683601959E-003 
 2.926036492676166E-003  2.962841500905422E-003  3.000109459147142E-003  3.037846190595620E-003 
 3.076057591691929E-003  3.114749633045227E-003  3.153928360365696E-003  3.193599895409188E-003 
 3.233770436933766E-003  3.274446261668274E-003  3.315633725293080E-003  3.357339263433172E-003 
 3.399569392663736E-003  3.442330711528379E-003  3.485629901570177E-003  3.529473728375664E-003 
 3.573869042631980E-003  3.618822781197300E-003  3.664341968184731E-003  3.710433716059856E-003 
 3.757105226752053E-003  3.804363792779817E-003  3.852216798390243E-003  3.900671720712809E-003 
 3.949736130927720E-003  3.999417695448887E-003  4.049724177121847E-003  4.100663436436711E-003 
 4.152243432756378E-003  4.204472225560223E-003  4.257357975703376E-003  4.310908946691895E-003 
 4.365133505973946E-003  4.420040126247236E-003  4.475637386782898E-003  4.531933974765998E-003 
 4.588938686652948E-003  4.646660429545955E-003  4.705108222584779E-003  4.764291198356002E-003 
 4.824218604319995E-003  4.884899804255862E-003  4.946344279724550E-003  5.008561631550355E-003 
 5.071561581321093E-003  5.135353972907084E-003  5.199948773999302E-003  5.265356077666833E-003 
 5.331586103933947E-003  5.398649201377000E-003  5.466555848741407E-003  5.535316656578973E-003 
 5.604942368905819E-003  5.675443864881145E-003  5.746832160507144E-003  5.819118410350243E-003 
 5.892313909284048E-003  5.966430094254185E-003  6.041478546065339E-003  6.117470991190805E-003 
 6.194419303604736E-003  6.272335506637500E-003  6.351231774854342E-003  6.431120435957679E-003 
 6.512013972713357E-003  6.593925024901068E-003  6.676866391289364E-003  6.760851031635489E-003 
 6.845892068710358E-003  6.932002790349045E-003  7.019196651526995E-003  7.107487276462411E-003 
 7.196888460745071E-003  7.287414173491897E-003  7.379078559529700E-003  7.471895941605280E-003 
 7.565880822623426E-003  7.661047887913010E-003  7.757412007521598E-003  7.854988238538946E-003 
 7.953791827449661E-003  8.053838212515532E-003  8.155143026187771E-003  8.257722097549609E-003 
 8.361591454789662E-003  8.466767327706319E-003  8.573266150243702E-003  8.681104563059504E-003 
 8.790299416125122E-003  8.900867771358520E-003  9.012826905290150E-003  9.126194311762469E-003 
 9.240987704663388E-003  9.357225020694087E-003  9.474924422171701E-003  9.594104299867163E-003 
 9.714783275878835E-003  9.836980206542244E-003  9.960714185376409E-003  1.008600454606728E-002 
 1.021287086548860E-002  1.034133296676091E-002  1.047141092234888E-002  1.060312505719771E-002 
 1.073649595190896E-002  1.087154444595626E-002  1.100829164094158E-002  1.114675890389233E-002 
 1.128696787060007E-002  1.142894044900111E-002  1.157269882259967E-002  1.171826545393410E-002 
 1.186566308808670E-002  1.201491475623769E-002  1.216604377926388E-002  1.231907377138259E-002 
 1.247402864384142E-002  1.263093260865447E-002  1.278981018238544E-002  1.295068618997849E-002 
 1.311358576863710E-002  1.327853437175186E-002  1.344555777287759E-002  1.361468206976052E-002 
 1.378593368841615E-002  1.395933938725829E-002  1.413492626128019E-002  1.431272174628815E-002 
 1.449275362318841E-002  1.467505002232804E-002  1.485963942789028E-002  1.504655068234530E-002 
 1.523581299095688E-002  1.542745592634579E-002  1.562150943311061E-002  1.581800383250655E-002 
 1.601696982718331E-002  1.621843850598234E-002  1.642244134879458E-002  1.662901023147931E-002 
 1.683817743084469E-002  1.704997562969118E-002  1.726443792191825E-002  1.748159781769537E-002 
 1.770148924869812E-002  1.792414657340993E-002  1.814960458249080E-002  1.837789850421334E-002 
 1.860906400996727E-002  1.884313721983321E-002  1.908015470822641E-002  1.932015350961164E-002 
 1.956317112428991E-002  1.980924552425792E-002  2.005841515914133E-002  2.031071896220252E-002 
 2.056619635642403E-002  2.082488726066848E-002  2.108683209591596E-002  2.135207179157994E-002 
 2.162064779190247E-002  2.189260206243005E-002  2.216797709657072E-002  2.244681592223381E-002 
 2.272916210855318E-002  2.301505977269484E-002  2.330455358675049E-002  2.359768878471755E-002 
 2.389451116956708E-002  2.419506712040062E-002  2.449940359969698E-002  2.480756816065022E-002 
 2.511960895459995E-002  2.543557473855505E-002  2.575551488281216E-002  2.607947937866970E-002 
 2.640751884623927E-002  2.673968454235509E-002  2.707602836858293E-002  2.741660287933000E-002 
 2.776146129005647E-002  2.811065748559065E-002  2.846424602854853E-002  2.882228216785930E-002 
 2.918482184739822E-002  2.955192171472776E-002  2.992363912994910E-002  3.030003217466459E-002 
 3.068115966105326E-002  3.106708114106028E-002  3.145785691570207E-002  3.185354804448845E-002 
 3.225421635496332E-002  3.265992445236534E-002  3.307073572941020E-002  3.348671437619572E-002 
 3.390792539023177E-002  3.433443458659625E-002  3.476630860821881E-002  3.520361493629404E-002 
 3.564642190082537E-002  3.609479869130192E-002  3.654881536750942E-002  3.700854287047720E-002 
 3.747405303356300E-002  3.794541859367684E-002  3.842271320264649E-002  3.890601143872569E-002 
 3.939538881824703E-002  3.989092180742184E-002  4.039268783428770E-002  4.090076530080724E-002 
 4.141523359511834E-002  4.193617310393857E-002  4.246366522512616E-002  4.299779238039809E-002 
 4.353863802820916E-002  4.408628667679226E-002  4.464082389736277E-002  4.520233633748979E-002 
 4.577091173463433E-002  4.634663892985905E-002  4.692960788170961E-002  4.751990968027063E-002 
 4.811763656139929E-002  4.872288192113668E-002  4.933574033030171E-002  4.995630754926778E-002 
 5.058468054292524E-002  5.122095749583295E-002  5.186523782755913E-002  5.251762220821653E-002 
 5.317821257419198E-002  5.384711214407397E-002  5.452442543478137E-002  5.521025827789366E-002 
 5.590471783618801E-002  5.660791262038340E-002  5.731995250609532E-002  5.804094875100477E-002 
 5.877101401224168E-002  5.951026236398857E-002  6.025880931530450E-002  6.101677182817333E-002 
 6.178426833578003E-002  6.256141876101513E-002  6.334834453521386E-002  6.414516861712953E-002 
 6.495201551214587E-002  6.576901129173199E-002  6.659628361314043E-002  6.743396173935462E-002 
 6.828217655928616E-002  6.914106060822613E-002  7.001074808855483E-002  7.089137489071023E-002 
 7.178307861442193E-002  7.268599859021105E-002  7.360027590116060E-002  7.452605340496074E-002 
 7.546347575622972E-002  7.641268942911725E-002  7.737384274019102E-002  7.834708587161111E-002 
 7.933257089459718E-002  8.033045179318875E-002  8.134088448830659E-002  8.236402686211519E-002 
 8.340003878269175E-002  8.444908212900695E-002  8.551132081621765E-002  8.658692082128003E-002 
 8.767605020888333E-002  8.877887915770995E-002  8.989557998702713E-002  9.102632718361110E-002 
 9.217129742901202E-002  9.333066962716034E-002  9.450462493232047E-002  9.569334677739760E-002 
 9.689702090259815E-002  9.811583538445323E-002  9.934998066520555E-002  1.005996495825657E-001 
 1.018650373998449E-001  1.031463418364637E-001  1.044437630988473E-001  1.057575039117078E-001 
 1.070877695497196E-001  1.084347678695955E-001  1.097987093425630E-001  1.111798070872526E-001 
 1.125782769029968E-001  1.139943373035492E-001  1.154282095512287E-001  1.168801176914909E-001 
 1.183502885879369E-001  1.198389519577605E-001  1.213463404076415E-001  1.228726894700925E-001 
 1.244182376402594E-001  1.259832264131884E-001  1.275679003215596E-001  1.291725069738947E-001 
 1.307972970932483E-001  1.324425245563816E-001  1.341084464334332E-001  1.357953230280860E-001 
 1.375034179182395E-001  1.392329979971958E-001  1.409843335153607E-001  1.427576981224722E-001 
 1.445533689103584E-001  1.463716264562327E-001  1.482127548665364E-001  1.500770418213289E-001 
 1.519647786192402E-001  1.538762602229857E-001  1.558117853054544E-001  1.577716562963790E-001 
 1.597561794295885E-001  1.617656647908604E-001  1.638004263663708E-001  1.658607820917554E-001 
 1.679470539017884E-001  1.700595677806843E-001  1.721986538130347E-001  1.743646462353846E-001 
 1.765578834884561E-001  1.787787082700328E-001  1.810274675885045E-001  1.833045128170902E-001 
 1.856101997487397E-001  1.879448886517266E-001  1.903089443259424E-001  1.927027361598955E-001 
 1.951266381884306E-001  1.975810291511705E-001  2.000662925516970E-001  2.025828167174732E-001 
 2.051309948605189E-001  2.077112251388543E-001  2.103239107187091E-001  2.129694598375209E-001 
 2.156482858677224E-001  2.183608073813303E-001  2.211074482153504E-001  2.238886375380004E-001 
 2.267048099157706E-001  2.295564053813251E-001  2.324438695022562E-001  2.353676534507081E-001 
 2.383282140738705E-001  2.413260139653644E-001  2.443615215375224E-001  2.474352110945777E-001 
 2.505475629067778E-001  2.536990632854245E-001  2.568902046588644E-001  2.601214856494298E-001 
 2.633934111513488E-001  2.667064924096387E-001  2.700612470999857E-001  2.734581994096360E-001 
 2.768978801192996E-001  2.803808266860843E-001  2.839075833274786E-001  2.874787011063816E-001 
 2.910947380172126E-001  2.947562590730960E-001  2.984638363941454E-001  3.022180492968614E-001 
 3.060194843846468E-001  3.098687356394688E-001  3.137664045146678E-001  3.177131000289344E-001 
 3.217094388614734E-001  3.257560454483569E-001  3.298535520800975E-001  3.340025990004435E-001 
 3.382038345064163E-001  3.424579150496123E-001  3.467655053387703E-001  3.511272784436374E-001 
 3.555439159001358E-001  3.600161078168529E-001  3.645445529828753E-001  3.691299589769724E-001 
 3.737730422781603E-001  3.784745283776521E-001  3.832351518922145E-001  3.880556566789588E-001 
 3.929367959515639E-001  3.978793323979725E-001  4.028840382995608E-001  4.079516956518066E-001 
 4.130830962864829E-001  4.182790419953773E-001  4.235403446555789E-001  4.288678263563330E-001 
 4.342623195274931E-001  4.397246670695936E-001  4.452557224855498E-001  4.508563500140241E-001 
 4.565274247644633E-001  4.622698328538333E-001  4.680844715450829E-001  4.739722493873358E-001 
 4.799340863578596E-001  4.859709140058111E-001  4.920836755977906E-001  4.982733262652352E-001 
 5.045408331536528E-001  5.108871755737470E-001  5.173133451544335E-001  5.238203459977817E-001 
 5.304091948359136E-001  5.370809211898637E-001  5.438365675304493E-001  5.506771894411565E-001 
 5.576038557830745E-001  5.646176488619133E-001  5.717196645971094E-001  5.789110126930715E-001 
 5.861928168125715E-001  5.935662147523160E-001  6.010323586207365E-001  6.085924150180001E-001 
 6.162475652183013E-001  6.239990053544342E-001  6.318479466046886E-001  6.397956153821056E-001 
 6.478432535260994E-001  6.559921184965039E-001  6.642434835700509E-001  6.725986380393185E-001 
 6.810588874141935E-001  6.896255536258508E-001  6.982999752333162E-001  7.070835076326154E-001 
 7.159775232685535E-001  7.249834118491713E-001  7.341025805628792E-001  7.433364542983435E-001 
 7.526864758671230E-001  7.621541062291080E-001  7.717408247208072E-001  7.814481292864864E-001 
 7.912775367122353E-001  8.012305828629636E-001  8.113088229223790E-001  8.215138316359981E-001 
 8.318472035571919E-001  8.423105532963476E-001  8.529055157731515E-001  8.636337464720434E-001 
 8.744969217008993E-001  8.854967388529474E-001  8.966349166719983E-001  9.079131955209988E-001 
 9.193333376539615E-001  9.308971274913326E-001  9.426063718987973E-001  9.544629004696188E-001 
 9.664685658105103E-001  9.786252438311036E-001  9.909348340370757E-001  1.003399259826937E+000 
 1.016020468792578E+000  1.028800433023579E+000  1.041741149415349E+000  1.054844639981156E+000 
 1.068112952168056E+000  1.081548159176825E+000  1.095152360285894E+000  1.108927681179361E+000 
 1.122876274279144E+000  1.137000319081292E+000  1.151302022496541E+000  1.165783619195149E+000 
 1.180447371956060E+000  1.195295572020480E+000  1.210330539449874E+000  1.225554623488493E+000 
 1.240970202930444E+000  1.256579686491375E+000  1.272385513184854E+000  1.288390152703454E+000 
 1.304596105804664E+000  1.321005904701630E+000  1.337622113458810E+000  1.354447328392634E+000 
 1.371484178477162E+000  1.388735325754882E+000  1.406203465752659E+000  1.423891327902900E+000 
 1.441801675970057E+000  1.459937308482451E+000  1.478301059169561E+000  1.496895797404795E+000 
 1.515724428653829E+000  1.534789894928609E+000  1.554095175247023E+000  1.573643286098400E+000 
 1.593437281914835E+000  1.613480255548440E+000  1.633775338754628E+000  1.654325702681435E+000 
 1.675134558365039E+000  1.696205157231477E+000  1.717540791604686E+000  1.739144795220950E+000 
 1.761020543749782E+000  1.783171455321399E+000  1.805600991060804E+000  1.828312655628582E+000 
 1.851309997768537E+000  1.874596610862159E+000  1.898176133490125E+000  1.922052250000821E+000 
 1.946228691086022E+000  1.970709234363842E+000  1.995497704968967E+000  2.020597976150365E+000 
 2.046013969876478E+000  2.071749657448029E+000  2.097809060118567E+000  2.124196249722771E+000 
 2.150915349312704E+000  2.177970533802043E+000  2.205366030618400E+000  2.233106120363897E+000 
 2.261195137483987E+000  2.289637470944746E+000  2.318437564918648E+000  2.347599919478962E+000 
 2.377129091302927E+000  2.407029694383712E+000  2.437306400751383E+000  2.467963941202915E+000 
 2.499007106041367E+000  2.530440745824412E+000  2.562269772122209E+000  2.594499158284879E+000 
 2.627133940219585E+000  2.660179217177391E+000  2.693640152550063E+000  2.727521974676819E+000 
 2.761829977661304E+000  2.796569522198791E+000  2.831746036413782E+000  2.867365016708199E+000 
 2.903432028620172E+000  2.939952707693694E+000  2.976932760359179E+000  3.014377964825082E+000 
 3.052294171980793E+000  3.090687306310812E+000  3.129563366820494E+000  3.168928427973394E+000 
 3.208788640640394E+000  3.249150233060830E+000  3.290019511815625E+000  3.331402862812737E+000 
 3.373306752284961E+000  3.415737727800270E+000  3.458702419284926E+000  3.502207540059374E+000 
 3.546259887887252E+000  3.590866346037541E+000  3.636033884360066E+000  3.681769560374598E+000 
 3.728080520373550E+000  3.774974000538649E+000  3.822457328071583E+000  3.870537922338872E+000 
 3.919223296031203E+000  3.968521056337254E+000  4.018438906132377E+000  4.068984645182167E+000 
 4.120166171361173E+000  4.171991481887005E+000  4.224468674569858E+000  4.277605949077859E+000 
 4.331411608218270E+000  4.385894059234780E+000  4.441061815121226E+000  4.496923495951687E+000 
 4.553487830227453E+000  4.610763656240842E+000  4.668759923456181E+000  4.727485693908236E+000 
 4.786950143618100E+000  4.847162564027029E+000  4.908132363448225E+000  4.969869068536875E+000 
 5.032382325778769E+000  5.095681902997518E+000  5.159777690880857E+000  5.224679704526054E+000 
 5.290398085004766E+000  5.356943100947670E+000  5.424325150148872E+000  5.492554761190660E+000 
 5.561642595088583E+000  5.631599446957229E+000  5.702436247697050E+000  5.774164065702260E+000 
 5.846794108590364E+000  5.920337724953341E+000  5.994806406130852E+000  6.070211788005859E+000 
 6.146565652822675E+000  6.223879931028028E+000  6.302166703135198E+000  6.381438201611578E+000 
 6.461706812790109E+000  6.542985078804572E+000  6.625285699549405E+000  6.708621534664052E+000 
 6.793005605542276E+000  6.878451097366854E+000  6.964971361169701E+000  7.052579915918075E+000 
 7.141290450626910E+000  7.231116826497710E+000  7.322073079084485E+000  7.414173420486728E+000 
 7.507432241570173E+000  7.601864114215369E+000  7.697483793594509E+000  7.794306220477064E+000 
 7.892346523564195E+000  7.991620021852736E+000  8.092142227028782E+000  8.193928845891380E+000 
 8.296995782806839E+000  8.401359142193716E+000  8.507035231039259E+000  8.614040561447366E+000 
 8.722391853218584E+000  8.832106036462726E+000  8.943200254244111E+000  9.055691865260304E+000 
 9.169598446554406E+000  9.284937796261461E+000  9.401727936389550E+000  9.519987115635649E+000 
 9.639733812237127E+000  9.760986736858978E+000  9.883764835517326E+000  1.000808729253992E+001 
 1.013397353356356E+001  1.026144322856956E+001  1.039051629495710E+001  1.052121290065538E+001 
 1.065355346727498E+001  1.078755867329865E+001  1.092324945731248E+001  1.106064702127756E+001 
 1.119977283384275E+001  1.134064863369937E+001  1.148329643297771E+001  1.162773852068665E+001 