<UPF version="2.0.1">
  <PP_INFO>
    Generated using "atomic" code by A. Dal Corso  v.5.1.2
    Author: ADC
    Generation date: 30Jul2016
    Pseudopotential type: USPP
    Element:  W
    Functional: PBE

    Suggested minimum cutoff for wavefunctions:  51. Ry
    Suggested minimum cutoff for charge density: 379. Ry
    The Pseudo was generated with a Scalar-Relativistic Calculation
    Local Potential by smoothing AE potential with Bessel fncs, cutoff radius:   1.5000
    Pseudopotential contains additional information for GIPAW reconstruction.

    Valence configuration: 
    nl pn  l   occ       Rcut    Rcut US       E pseu
    5S  1  0  2.00      1.000      1.300    -5.811654
    6S  2  0  2.00      1.000      1.300    -0.419857
    5P  2  1  6.00      1.100      1.300    -3.175210
    5D  3  2  4.00      1.500      1.800    -0.329248
    4F  4  3 14.00      1.200      1.800    -2.440527
    Generation configuration:
    5S  1  0  2.00      1.000      1.300    -5.811731
    6S  2  0  2.00      1.000      1.300    -0.419876
    5P  2  1  6.00      1.100      1.300    -3.175258
    6P  3  1  0.00      1.100      1.300    -2.400000
    5D  3  2  4.00      1.500      1.800    -0.329275
    5D  3  2  0.00      1.500      1.800     0.050000
    4F  4  3 14.00      1.200      1.800    -2.440665
    4F  4  3  0.00      1.200      1.800     1.000000

    Pseudization used: troullier-martins
<PP_INPUTFILE>
 &input
   title='W',
   zed=74.,
   rel=1,
   config='[Xe] 4f14 6s2 6p0 5d4',
   iswitch=3,
   dft='PBE'
 /
 &inputp
   lpaw=.false.,
   pseudotype=3,
   file_pseudopw='W.pbe-spfn-rrkjus_psl.1.0.0.UPF',
   author='ADC',
   lloc=-1,
   rcloc=1.5,
   which_augfun='PSQ',
   rmatch_augfun_nc=.true.,
   nlcc=.true.,
   new_core_ps=.true.,
   rcore=1.2,
   tm=.true.
 /
8
5S  1  0  2.00  0.00  1.00  1.30  0.0
6S  2  0  2.00  0.00  1.00  1.30  0.0
5P  2  1  6.00  0.00  1.10  1.30  0.0
6P  3  1  0.00 -2.40  1.10  1.30  0.0
5D  3  2  4.00  0.00  1.50  1.80  0.0
5D  3  2  0.00  0.05  1.50  1.80  0.0
4F  4  3 14.00  0.00  1.20  1.80  0.0
4F  4  3  0.00  1.00  1.20  1.80  0.0
</PP_INPUTFILE>
  </PP_INFO>
  <!--                               -->
  <!-- END OF HUMAN READABLE SECTION -->
  <!--                               -->
  <PP_HEADER generated='Generated using "atomic" code by A. Dal Corso  v.5.1.2'
             author="ADC"
             date="30Jul2016"
             comment=""
             element=" W"
             pseudo_type="USPP"
             relativistic="scalar"
             is_ultrasoft="T"
             is_paw="F"
             is_coulomb="F"
             has_so="F"
             has_wfc="F"
             has_gipaw="T"
             paw_as_gipaw="F"
             core_correction="T"
             functional="PBE"
             z_valence="2.800000000000000E+001"
             total_psenergy="-7.374682019447981E+002"
             wfc_cutoff="5.061758639825183E+001"
             rho_cutoff="3.791106267028472E+002"
             l_max="3"
             l_max_rho="6"
             l_local="-1"
             mesh_size="1273"
             number_of_wfc="5"
             number_of_proj="8"/>
  <PP_MESH dx="1.250000000000000E-002" mesh="1273" xmin="-7.000000000000000E+000" rmax="1.000000000000000E+002"
zmesh="7.400000000000000E+001">
    <PP_R type="real" size="1273" columns="4">
 1.232272926425022E-005  1.247773011714895E-005  1.263468064076462E-005  1.279360535893586E-005 
 1.295452910397324E-005  1.311747702053931E-005  1.328247456957755E-005  1.344954753229069E-005 
 1.361872201416906E-005  1.379002444906966E-005  1.396348160334645E-005  1.413912058003268E-005 
 1.431696882307581E-005  1.449705412162563E-005  1.467940461437646E-005  1.486404879396376E-005 
 1.505101551141626E-005  1.524033398066395E-005  1.543203378310280E-005  1.562614487221700E-005 
 1.582269757825912E-005  1.602172261298936E-005  1.622325107447434E-005  1.642731445194614E-005 
 1.663394463072272E-005  1.684317389718986E-005  1.705503494384614E-005  1.726956087441114E-005 
 1.748678520899795E-005  1.770674188935081E-005  1.792946528414853E-005  1.815499019437469E-005 
 1.838335185875532E-005  1.861458595926510E-005  1.884872862670269E-005  1.908581644633624E-005 
 1.932588646361993E-005  1.956897618998237E-005  1.981512360868788E-005  2.006436718077144E-005 
 2.031674585104827E-005  2.057229905419907E-005  2.083106672093176E-005  2.109308928422071E-005 
 2.135840768562456E-005  2.162706338168330E-005  2.189909835039604E-005  2.217455509778008E-005 
 2.245347666451262E-005  2.273590663265596E-005  2.302188913246722E-005  2.331146884929381E-005 
 2.360469103055567E-005  2.390160149281514E-005  2.420224662893608E-005  2.450667341533264E-005 
 2.481492941930956E-005  2.512706280649461E-005  2.544312234836456E-005  2.576315742986590E-005 
 2.608721805713121E-005  2.641535486529280E-005  2.674761912639455E-005  2.708406275740323E-005 
 2.742473832832073E-005  2.776969907039809E-005  2.811899888445310E-005  2.847269234929235E-005 
 2.883083473023930E-005  2.919348198776966E-005  2.956069078625521E-005  2.993251850281780E-005 
 3.030902323629464E-005  3.069026381631631E-005  3.107629981249913E-005  3.146719154375289E-005 
 3.186300008770585E-005  3.226378729024829E-005  3.266961577519599E-005  3.308054895407545E-005 
 3.349665103603187E-005  3.391798703786214E-005  3.434462279417376E-005  3.477662496767162E-005 
 3.521406105957430E-005  3.565699942016110E-005  3.610550925945203E-005  3.655966065802198E-005 
 3.701952457795092E-005  3.748517287391201E-005  3.795667830439882E-005  3.843411454309416E-005 
 3.891755619038166E-005  3.940707878500227E-005  3.990275881585738E-005  4.040467373396027E-005 
 4.091290196453804E-005  4.142752291928571E-005  4.194861700877444E-005  4.247626565501595E-005 
 4.301055130418469E-005  4.355155743950036E-005  4.409936859427228E-005  4.465407036510786E-005 
 4.521574942528746E-005  4.578449353830692E-005  4.636039157159101E-005  4.694353351037911E-005 
 4.753401047178552E-005  4.813191471903689E-005  4.873733967588825E-005  4.935037994122086E-005 
 4.997113130382340E-005  5.059969075735919E-005  5.123615651552173E-005  5.188062802738059E-005 
 5.253320599292068E-005  5.319399237877680E-005  5.386309043416609E-005  5.454060470702106E-005 
 5.522664106032522E-005  5.592130668865455E-005  5.662471013492675E-005  5.733696130736136E-005 
 5.805817149665324E-005  5.878845339336175E-005  5.952792110551900E-005  6.027669017645948E-005 
 6.103487760287386E-005  6.180260185309018E-005  6.257998288558440E-005  6.336714216772447E-005 
 6.416420269474970E-005  6.497128900898899E-005  6.578852721932113E-005  6.661604502087907E-005 
 6.745397171500293E-005  6.830243822944344E-005  6.916157713881962E-005  7.003152268533412E-005 
 7.091241079974844E-005  7.180437912262264E-005  7.270756702582189E-005  7.362211563429358E-005 
 7.454816784811853E-005  7.548586836483918E-005  7.643536370206903E-005  7.739680222038629E-005 
 7.837033414651543E-005  7.935611159680071E-005  8.035428860097425E-005  8.136502112622377E-005 
 8.238846710156267E-005  8.342478644250677E-005  8.447414107606164E-005  8.553669496602360E-005 
 8.661261413859977E-005  8.770206670834983E-005  8.880522290445423E-005  8.992225509731316E-005 
 9.105333782547928E-005  9.219864782293009E-005  9.335836404668286E-005  9.453266770475690E-005 
 9.572174228448818E-005  9.692577358119864E-005  9.814494972722826E-005  9.937946122133022E-005 
 1.006295009584370E-004  1.018952642598010E-004  1.031769489035130E-004  1.044747551554064E-004 
 1.057888858003483E-004  1.071195461739256E-004  1.084669441945292E-004  1.098312903958407E-004 
 1.112127979597301E-004  1.126116827495650E-004  1.140281633439396E-004  1.154624610708290E-004 
 1.169148000421707E-004  1.183854071888842E-004  1.198745122963278E-004  1.213823480402043E-004 
 1.229091500229165E-004  1.244551568103803E-004  1.260206099693017E-004  1.276057541049218E-004 
 1.292108368992365E-004  1.308361091496985E-004  1.324818248084031E-004  1.341482410217704E-004 
 1.358356181707241E-004  1.375442199113766E-004  1.392743132162263E-004  1.410261684158717E-004 
 1.428000592412521E-004  1.445962628664179E-004  1.464150599518399E-004  1.482567346882633E-004 
 1.501215748411122E-004  1.520098717954549E-004  1.539219206015321E-004  1.558580200208597E-004 
 1.578184725729115E-004  1.598035845823867E-004  1.618136662270760E-004  1.638490315863257E-004 
 1.659099986901140E-004  1.679968895687445E-004  1.701100303031621E-004  1.722497510759063E-004 
 1.744163862227010E-004  1.766102742846957E-004  1.788317580613641E-004  1.810811846640652E-004 
 1.833589055702829E-004  1.856652766785425E-004  1.880006583640219E-004  1.903654155348613E-004 
 1.927599176891791E-004  1.951845389728092E-004  1.976396582377598E-004  2.001256591014108E-004 
 2.026429300064556E-004  2.051918642815939E-004  2.077728602029923E-004  2.103863210565147E-004 
 2.130326552007363E-004  2.157122761307517E-004  2.184256025427821E-004  2.211730583996004E-004 
 2.239550729967737E-004  2.267720810297427E-004  2.296245226617444E-004  2.325128435925863E-004 
 2.354374951282907E-004  2.383989342516103E-004  2.413976236934329E-004  2.444340320050853E-004 
 2.475086336315430E-004  2.506219089855660E-004  2.537743445227623E-004  2.569664328175980E-004 
 2.601986726403639E-004  2.634715690351080E-004  2.667856333985511E-004  2.701413835599923E-004 
 2.735393438622215E-004  2.769800452434494E-004  2.804640253202668E-004  2.839918284716491E-004 
 2.875640059240159E-004  2.911811158373618E-004  2.948437233924699E-004  2.985524008792222E-004 
 3.023077277860216E-004  3.061102908903374E-004  3.099606843503909E-004  3.138595097979943E-004 
 3.178073764325555E-004  3.218049011162687E-004  3.258527084704983E-004  3.299514309733789E-004 
 3.341017090586405E-004  3.383041912156777E-004  3.425595340908776E-004  3.468684025902221E-004 
 3.512314699831804E-004  3.556494180079096E-004  3.601229369777768E-004  3.646527258892228E-004 
 3.692394925309807E-004  3.738839535946700E-004  3.785868347867814E-004  3.833488709420689E-004 
 3.881708061383707E-004  3.930533938128713E-004  3.979973968798282E-004  4.030035878497798E-004 
 4.080727489502500E-004  4.132056722479743E-004  4.184031597726607E-004  4.236660236423093E-004 
 4.289950861901075E-004  4.343911800929199E-004  4.398551485013977E-004  4.453878451717212E-004 
 4.509901345990011E-004  4.566628921523589E-004  4.624070042117031E-004  4.682233683062301E-004 
 4.741128932546627E-004  4.800764993072563E-004  4.861151182895901E-004  4.922296937481653E-004 
 4.984211810978381E-004  5.046905477711030E-004  5.110387733692579E-004  5.174668498154684E-004 
 5.239757815097568E-004  5.305665854859435E-004  5.372402915705583E-004  5.439979425437547E-004 
 5.508405943022463E-004  5.577693160242912E-004  5.647851903367556E-004  5.718893134842746E-004 
 5.790827955005431E-004  5.863667603817618E-004  5.937423462622624E-004  6.012107055923449E-004 
 6.087730053183489E-004  6.164304270649919E-004  6.241841673200017E-004  6.320354376210673E-004 
 6.399854647451477E-004  6.480354909001551E-004  6.561867739190537E-004  6.644405874563998E-004 
 6.727982211873506E-004  6.812609810091807E-004  6.898301892453299E-004  6.985071848520190E-004 
 7.072933236274646E-004  7.161899784237270E-004  7.251985393612180E-004  7.343204140459120E-004 
 7.435570277892873E-004  7.529098238310324E-004  7.623802635645587E-004  7.719698267653418E-004 
 7.816800118221417E-004  7.915123359711291E-004  8.014683355329556E-004  8.115495661528100E-004 
 8.217576030434861E-004  8.320940412315167E-004  8.425604958063981E-004  8.531586021729511E-004 
 8.638900163068590E-004  8.747564150134129E-004  8.857594961895184E-004  8.969009790889952E-004 
 9.081826045912129E-004  9.196061354731107E-004  9.311733566846295E-004  9.428860756276171E-004 
 9.547461224382382E-004  9.667553502729354E-004  9.789156355979925E-004  9.912288784827315E-004 
 1.003697002896404E-003  1.016321957008817E-003  1.029105713494734E-003  1.042050269842118E-003 
 1.055157648664232E-003  1.068429898015685E-003  1.081869091712440E-003  1.095477329655855E-003 
 1.109256738160795E-003  1.123209470287872E-003  1.137337706179870E-003  1.151643653402390E-003 
 1.166129547288790E-003  1.180797651289465E-003  1.195650257325504E-003  1.210689686146820E-003 
 1.225918287694764E-003  1.241338441469309E-003  1.256952556900858E-003  1.272763073726712E-003 
 1.288772462372293E-003  1.304983224337147E-003  1.321397892585811E-003  1.338019031943599E-003 
 1.354849239497348E-003  1.371891145001231E-003  1.389147411287655E-003  1.406620734683333E-003 
 1.424313845430599E-003  1.442229508114003E-003  1.460370522092288E-003  1.478739721935797E-003 
 1.497339977869378E-003  1.516174196220861E-003  1.535245319875186E-003  1.554556328734222E-003 
 1.574110240182392E-003  1.593910109558143E-003  1.613959030631346E-003  1.634260136086712E-003 
 1.654816598013269E-003  1.675631628400017E-003  1.696708479637802E-003  1.718050445027508E-003 
 1.739660859294652E-003  1.761543099110428E-003  1.783700583619328E-003  1.806136774973385E-003 
 1.828855178873145E-003  1.851859345115439E-003  1.875152868148044E-003  1.898739387631327E-003 
 1.922622589006941E-003  1.946806204073693E-003  1.971294011570641E-003  1.996089837767525E-003 
 2.021197557062637E-003  2.046621092588198E-003  2.072364416823358E-003  2.098431552214906E-003 
 2.124826571805779E-003  2.151553599871491E-003  2.178616812564553E-003  2.206020438567006E-003 
 2.233768759751170E-003  2.261866111848683E-003  2.290316885127976E-003  2.319125525080255E-003 
 2.348296533114123E-003  2.377834467258940E-003  2.407743942877007E-003  2.438029633384741E-003 
 2.468696270982902E-003  2.499748647396004E-003  2.531191614621041E-003  2.563030085685612E-003 
 2.595269035415597E-003  2.627913501212482E-003  2.660968583840460E-003  2.694439448223448E-003 
 2.728331324252101E-003  2.762649507601001E-003  2.797399360556119E-003  2.832586312852673E-003 
 2.868215862523556E-003  2.904293576758387E-003  2.940825092773419E-003  2.977816118692351E-003 
 3.015272434438241E-003  3.053199892636633E-003  3.091604419530034E-003  3.130492015903904E-003 
 3.169868758024295E-003  3.209740798587272E-003  3.250114367680300E-003  3.290995773755686E-003 
 3.332391404616305E-003  3.374307728413699E-003  3.416751294658736E-003  3.459728735245001E-003 
 3.503246765485022E-003  3.547312185159560E-003  3.591931879580092E-003  3.637112820664647E-003 
 3.682862068027198E-003  3.729186770080719E-003  3.776094165154155E-003  3.823591582623419E-003 
 3.871686444056623E-003  3.920386264373721E-003  3.969698653020715E-003  4.019631315158659E-003 
 4.070192052867599E-003  4.121388766365666E-003  4.173229455243513E-003  4.225722219714242E-003 
 4.278875261879100E-003  4.332696887009066E-003  4.387195504842564E-003  4.442379630899516E-003 
 4.498257887811888E-003  4.554839006671006E-003  4.612131828391810E-003  4.670145305094251E-003 
 4.728888501502101E-003  4.788370596359308E-003  4.848600883864213E-003  4.909588775121777E-003 
 4.971343799614085E-003  5.033875606689366E-003  5.097193967069690E-003  5.161308774377690E-003 
 5.226230046682453E-003  5.291967928064851E-003  5.358532690202608E-003  5.425934733975226E-003 
 5.494184591089180E-003  5.563292925723497E-003  5.633270536196059E-003  5.704128356650886E-003 
 5.775877458766579E-003  5.848529053486318E-003  5.922094492769589E-003  5.996585271365944E-003 
 6.072013028611103E-003  6.148389550245590E-003  6.225726770256299E-003  6.304036772741198E-003 
 6.383331793797496E-003  6.463624223433570E-003  6.544926607504900E-003  6.627251649674410E-003 
 6.710612213397430E-003  6.795021323931634E-003  6.880492170372288E-003  6.967038107713031E-003 
 7.054672658932654E-003  7.143409517108077E-003  7.233262547553923E-003  7.324245789989017E-003 
 7.416373460730089E-003  7.509659954913131E-003  7.604119848742650E-003  7.699767901769230E-003 
 7.796619059195767E-003  7.894688454212649E-003  7.993991410362371E-003  8.094543443933861E-003 
 8.196360266386938E-003  8.299457786807268E-003  8.403852114392167E-003  8.509559560967708E-003 
 8.616596643537483E-003  8.724980086863406E-003  8.834726826079019E-003  8.945854009335598E-003 
 9.058379000481617E-003  9.172319381775876E-003  9.287692956634759E-003  9.404517752414082E-003 
 9.522812023225861E-003  9.642594252790579E-003  9.763883157325307E-003  9.886697688468133E-003 
 1.001105703623943E-002  1.013698063204030E-002  1.026448815168877E-002  1.039359951849420E-002 
 1.052433490637034E-002  1.065671474298752E-002  1.079075971296456E-002  1.092649076110071E-002 
 1.106392909564841E-002  1.120309619162703E-002  1.134401379417848E-002  1.148670392196484E-002 
 1.163118887060889E-002  1.177749121617782E-002  1.192563381871075E-002  1.207563982579075E-002 
 1.222753267616162E-002  1.238133610339024E-002  1.253707413957505E-002  1.269477111910102E-002 
 1.285445168244208E-002  1.301614078001111E-002  1.317986367605856E-002  1.334564595262003E-002 
 1.351351351351351E-002  1.368349258838695E-002  1.385560973681661E-002  1.402989185245710E-002 
 1.420636616724358E-002  1.438506025564675E-002  1.456600203898151E-002  1.474921978976962E-002 
 1.493474213615741E-002  1.512259806638894E-002  1.531281693333549E-002  1.550542845908206E-002 
 1.570046273957140E-002  1.589795024930664E-002  1.609792184611296E-002  1.630040877595920E-002 
 1.650544267784014E-002  1.671305558872007E-002  1.692327994853872E-002  1.713614860528000E-002 
 1.735169482010461E-002  1.756995227254718E-002  1.779095506577867E-002  1.801473773193518E-002 
 1.824133523751357E-002  1.847078298883508E-002  1.870311683757772E-002  1.893837308637802E-002 
 1.917658849450349E-002  1.941780028359629E-002  1.966204614348921E-002  1.990936423809481E-002 
 2.015979321136853E-002  2.041337219334694E-002  2.067014080626189E-002  2.093013917073153E-002 
 2.119340791202931E-002  2.145998816643168E-002  2.172992158764573E-002  2.200325035331772E-002 
 2.228001717162335E-002  2.256026528794112E-002  2.284403849160935E-002  2.313138112276845E-002 
 2.342233807928914E-002  2.371695482378782E-002  2.401527739073025E-002  2.431735239362445E-002 
 2.462322703230419E-002  2.493294910030407E-002  2.524656699232733E-002  2.556412971180770E-002 
 2.588568687856617E-002  2.621128873656426E-002  2.654098616175471E-002  2.687483067003097E-002 
 2.721287442527672E-002  2.755517024751643E-002  2.790177162116875E-002  2.825273270340347E-002 
 2.860810833260371E-002  2.896795403693459E-002  2.933232604301950E-002  2.970128128472572E-002 
 3.007487741206040E-002  3.045317280017849E-002  3.083622655850411E-002  3.122409853996628E-002 
 3.161684935035124E-002  3.201454035777218E-002  3.241723370225808E-002  3.282499230546336E-002 
 3.323787988049933E-002  3.365596094188963E-002  3.407930081565067E-002  3.450796564949901E-002 
 3.494202242318712E-002  3.538153895896894E-002  3.582658393219740E-002  3.627722688205503E-002 
 3.673353822241953E-002  3.719558925286631E-002  3.766345216980881E-002  3.813720007777972E-002 
 3.861690700085359E-002  3.910264789421299E-002  3.959449865586088E-002  4.009253613847930E-002 
 4.059683816143827E-002  4.110748352295494E-002  4.162455201240582E-002  4.214812442279453E-002 
 4.267828256337525E-002  4.321510927243614E-002  4.375868843024275E-002  4.430910497214424E-002 
 4.486644490184528E-002  4.543079530484365E-002  4.600224436203808E-002  4.658088136350644E-002 
 4.716679672245731E-002  4.776008198935775E-002  4.836082986623758E-002  4.896913422117487E-002 
 4.958509010296279E-002  5.020879375596086E-002  5.084034263513398E-002  5.147983542127922E-002 
 5.212737203644558E-002  5.278305365954668E-002  5.344698274216996E-002  5.411926302458553E-002 
 5.479999955195509E-002  5.548929869074610E-002  5.618726814535149E-002  5.689401697491838E-002 
 5.760965561038948E-002  5.833429587175736E-002  5.906805098553725E-002  5.981103560245862E-002 
 6.056336581537925E-002  6.132515917742578E-002  6.209653472036068E-002  6.287761297318201E-002 
 6.366851598095601E-002  6.446936732388653E-002  6.528029213662545E-002  6.610141712782441E-002 
 6.693287059993396E-002  6.777478246925085E-002  6.862728428621731E-002  6.949050925597691E-002 
 7.036459225918716E-002  7.124966987309581E-002  7.214588039288081E-002  7.305336385325902E-002 
 7.397226205036764E-002  7.490271856391924E-002  7.584487877963722E-002  7.679888991197227E-002 
 7.776490102710447E-002  7.874306306623621E-002  7.973352886917592E-002  8.073645319822056E-002 
 8.175199276233716E-002  8.278030624164846E-002  8.382155431222800E-002  8.487589967120494E-002 
 8.594350706218688E-002  8.702454330100086E-002  8.811917730175828E-002  8.922758010324912E-002 
 9.034992489566585E-002  9.148638704766586E-002  9.263714413377273E-002  9.380237596212210E-002 
 9.498226460255813E-002  9.617699441508104E-002  9.738675207865494E-002  9.861172662037618E-002 
 9.985210944500879E-002  1.011080943648931E-001  1.023798776302277E-001  1.036676579597355E-001 
 1.049716365717132E-001  1.062920172154715E-001  1.076290062031727E-001  1.089828124420659E-001 
 1.103536474671304E-001  1.117417254741280E-001  1.131472633530712E-001  1.145704807221133E-001 
 1.160115999618635E-001  1.174708462501352E-001  1.189484475971299E-001  1.204446348810640E-001 
 1.219596418842450E-001  1.234937053295990E-001  1.250470649176607E-001  1.266199633640261E-001 
 1.282126464372774E-001  1.298253629973853E-001  1.314583650345931E-001  1.331119077087916E-001 
 1.347862493893882E-001  1.364816516956764E-001  1.381983795377164E-001  1.399367011577256E-001 
 1.416968881719942E-001  1.434792156133245E-001  1.452839619740048E-001  1.471114092493263E-001 
 1.489618429816433E-001  1.508355523049914E-001  1.527328299902647E-001  1.546539724909611E-001 
 1.565992799895054E-001  1.585690564441515E-001  1.605636096364783E-001  1.625832512194803E-001 
 1.646282967662631E-001  1.666990658193550E-001  1.687958819406326E-001  1.709190727618814E-001 
 1.730689700359870E-001  1.752459096887721E-001  1.774502318714869E-001  1.796822810139566E-001 
 1.819424058784015E-001  1.842309596139292E-001  1.865482998117175E-001  1.888947885608871E-001 
 1.912707925050785E-001  1.936766828997425E-001  1.961128356701476E-001  1.985796314701208E-001 
 2.010774557415250E-001  2.036066987744837E-001  2.061677557683673E-001  2.087610268935409E-001 
 2.113869173538942E-001  2.140458374501545E-001  2.167382026439956E-001  2.194644336229575E-001 
 2.222249563661765E-001  2.250202022109479E-001  2.278506079201223E-001  2.307166157503495E-001 
 2.336186735211846E-001  2.365572346850580E-001  2.395327583981303E-001  2.425457095920359E-001 
 2.455965590465279E-001  2.486857834630415E-001  2.518138655391759E-001  2.549812940441201E-001 
 2.581885638950225E-001  2.614361762343219E-001  2.647246385080543E-001  2.680544645451396E-001 
 2.714261746376712E-001  2.748402956222112E-001  2.782973609621086E-001  2.817979108308572E-001 
 2.853424921964949E-001  2.889316589070722E-001  2.925659717771902E-001  2.962459986756280E-001 
 2.999723146140765E-001  3.037455018369814E-001  3.075661499125234E-001  3.114348558247378E-001 
 3.153522240667935E-001  3.193188667354493E-001  3.233354036266912E-001  3.274024623325808E-001 
 3.315206783393159E-001  3.356906951265250E-001  3.399131642678162E-001  3.441887455325824E-001 
 3.485181069890954E-001  3.529019251088918E-001  3.573408848724703E-001  3.618356798763264E-001 
 3.663870124413231E-001  3.709955937224338E-001  3.756621438198607E-001  3.803873918915494E-001 
 3.851720762671259E-001  3.900169445632573E-001  3.949227538004722E-001  3.998902705214457E-001 
 4.049202709107706E-001  4.100135409162427E-001  4.151708763716613E-001  4.203930831211846E-001 
 4.256809771452428E-001  4.310353846880338E-001  4.364571423866314E-001  4.419470974017051E-001 
 4.475061075498961E-001  4.531350414378509E-001  4.588347785979399E-001  4.646062096256923E-001 
 4.704502363189466E-001  4.763677718187641E-001  4.823597407521069E-001  4.884270793763099E-001 
 4.945707357253789E-001  5.007916697581162E-001  5.070908535081217E-001  5.134692712356730E-001 
 5.199279195815154E-001  5.264678077225948E-001  5.330899575297372E-001  5.397954037273234E-001 
 5.465851940549653E-001  5.534603894312136E-001  5.604220641193354E-001  5.674713058951623E-001 
 5.746092162170646E-001  5.818369103980535E-001  5.891555177800474E-001  5.965661819103417E-001 
 6.040700607202819E-001  6.116683267061995E-001  6.193621671126150E-001  6.271527841177429E-001 
 6.350413950213426E-001  6.430292324349149E-001  6.511175444743084E-001  6.593075949547359E-001 
 6.676006635882458E-001  6.759980461836866E-001  6.845010548491711E-001  6.931110181971041E-001 
 7.018292815517769E-001  7.106572071595737E-001  7.195961744018338E-001  7.286475800103726E-001 
 7.378128382857330E-001  7.470933813181687E-001  7.564906592114075E-001  7.660061403092415E-001 
 7.756413114249492E-001  7.853976780736215E-001  7.952767647073981E-001  8.052801149536620E-001 
 8.154092918562440E-001  8.256658781196402E-001  8.360514763563227E-001  8.465677093371475E-001 
 8.572162202449101E-001  8.679986729311074E-001  8.789167521759056E-001  8.899721639514013E-001 
 9.011666356881786E-001  9.125019165452183E-001  9.239797776832193E-001  9.356020125413330E-001 
 9.473704371174034E-001  9.592868902517153E-001  9.713532339143118E-001  9.835713534959425E-001 
 9.959431581026466E-001  1.008470580854066E+000  1.021155579185496E+000  1.034000135153728E+000 
 1.047006255746770E+000  1.060175973197421E+000  1.073511345300829E+000  1.087014455736018E+000 
 1.100687414391461E+000  1.114532357694772E+000  1.128551448946504E+000  1.142746878658189E+000 
 1.157120864894603E+000  1.171675653620337E+000  1.186413519050742E+000  1.201336764007275E+000 
 1.216447720277322E+000  1.231748748978547E+000  1.247242240927809E+000  1.262930617014753E+000 
 1.278816328580056E+000  1.294901857798471E+000  1.311189718066668E+000  1.327682454395947E+000 
 1.344382643809918E+000  1.361292895747150E+000  1.378415852468915E+000  1.395754189472039E+000 
 1.413310615906949E+000  1.431087875001000E+000  1.449088744487089E+000  1.467316037037697E+000 
 1.485772600704373E+000  1.504461319362735E+000  1.523385113163099E+000  1.542546938986744E+000 
 1.561949790907941E+000  1.581596700661783E+000  1.601490738117883E+000  1.621635011760075E+000 
 1.642032669172094E+000  1.662686897529413E+000  1.683600924097236E+000  1.704778016734759E+000 
 1.726221484405798E+000  1.747934677695797E+000  1.769920989335386E+000  1.792183854730495E+000 
 1.814726752499129E+000  1.837553205014934E+000  1.860666778957550E+000  1.884071085869935E+000 
 1.907769782722662E+000  1.931766572485325E+000  1.956065204705151E+000  1.980669476092854E+000 
 2.005583231115900E+000  2.030810362599202E+000  2.056354812333373E+000  2.082220571690661E+000 
 2.108411682248582E+000  2.134932236421452E+000  2.161786378099820E+000  2.188978303297951E+000 
 2.216512260809486E+000  2.244392552871299E+000  2.272623535835749E+000  2.301209620851367E+000 
 2.330155274552085E+000  2.359465019755195E+000  2.389143436168006E+000  2.419195161103469E+000 
 2.449624890204748E+000  2.480437378178919E+000  2.511637439539923E+000  2.543229949360817E+000 
 2.575219844035540E+000  2.607612122050224E+000  2.640411844764202E+000  2.673624137200888E+000 
 2.707254188848538E+000  2.741307254471147E+000  2.775788654929505E+000  2.810703778012576E+000 
 2.846058079279389E+000  2.881857082911433E+000  2.918106382575866E+000  2.954811642299516E+000 
 2.991978597353881E+000  3.029613055151315E+000  3.067720896152407E+000  3.106308074784849E+000 
 3.145380620373815E+000  3.184944638084035E+000  3.225006309873782E+000  3.265571895460767E+000 
 3.306647733300276E+000  3.348240241575545E+000  3.390355919200603E+000  3.433001346835774E+000 
 3.476183187915878E+000  3.519908189691443E+000  3.564183184282963E+000  3.609015089748407E+000 
 3.654410911164230E+000  3.700377741719872E+000  3.746922763826135E+000  3.794053250237426E+000 
 3.841776565188121E+000  3.890100165543289E+000  3.939031601963786E+000  3.988578520086112E+000 
 4.038748661717035E+000  4.089549866043241E+000  4.140990070856279E+000  4.193077313792790E+000 
 4.245819733590462E+000  4.299225571359703E+000  4.353303171871304E+000  4.408060984860382E+000 
 4.463507566346607E+000  4.519651579971149E+000  4.576501798350373E+000  4.634067104446546E+000 
 4.692356492955880E+000  4.751379071713902E+000  4.811144063118636E+000  4.871660805571591E+000 
 4.932938754936877E+000  4.994987486018774E+000  5.057816694057732E+000  5.121436196245345E+000 
 5.185855933258273E+000  5.251085970811470E+000  5.317136501231033E+000  5.384017845046702E+000 
 5.451740452604528E+000  5.520314905699737E+000  5.589751919230119E+000  5.660062342870329E+000 
 5.731257162767089E+000  5.803347503255864E+000  5.876344628599036E+000  5.950259944745931E+000 
 6.025105001115103E+000  6.100891492398858E+000  6.177631260390662E+000  6.255336295835400E+000 
 6.334018740302932E+000  6.413690888085310E+000  6.494365188117694E+000  6.576054245923611E+000 
 6.658770825584551E+000  6.742527851734351E+000  6.827338411578777E+000  6.913215756940327E+000 
 7.000173306328946E+000  7.088224647038655E+000  7.177383537270556E+000  7.267663908282668E+000 
 7.359079866566614E+000  7.451645696051875E+000  7.545375860337648E+000  7.640285004952773E+000 
 7.736387959644214E+000  7.833699740694141E+000  7.932235553266335E+000  8.032010793782003E+000 
 8.133041052325435E+000  8.235342115080110E+000  8.338929966795185E+000  8.443820793283255E+000 
 8.550030983949380E+000  8.657577134351904E+000  8.766476048795662E+000  8.876744742957564E+000 
 8.988400446545430E+000  9.101460605990127E+000  9.215942887171561E+000  9.331865178179113E+000 
 9.449245592106564E+000  9.568102469882424E+000  9.688454383135674E+000  9.810320137097586E+000 
 9.933718773540187E+000  1.005866957375145E+001  1.018519206154813E+001  1.031330600632637E+001 
 1.044303142615068E+001  1.057438859088185E+001  1.070739802534408E+001  1.084208051253215E+001 
 1.097845709685870E+001  1.111654908744246E+001  1.125637806143796E+001  1.139796586740681E+001 