<UPF version="2.0.1">
  <PP_INFO>
    Generated using "atomic" code by A. Dal Corso  v.5.1.2
    Author: ADC
    Generation date: 30Jul2016
    Pseudopotential type: PAW
    Element: Yb
    Functional:  SLA  PW   PBX  PBC

    Suggested minimum cutoff for wavefunctions: 141. Ry
    Suggested minimum cutoff for charge density: 635. Ry
    The Pseudo was generated with a Scalar-Relativistic Calculation
    Local Potential by smoothing AE potential with Bessel fncs, cutoff radius:   1.8000
    Pseudopotential contains additional information for GIPAW reconstruction.

    Valence configuration: 
    nl pn  l   occ       Rcut    Rcut US       E pseu
    5S  1  0  2.00      1.100      1.600    -4.037076
    6S  2  0  2.00      1.100      1.600    -0.288099
    5P  2  1  6.00      1.100      1.600    -2.015689
    4D  3  2 10.00      1.000      1.100   -13.078089
    5D  4  2  0.00      1.000      1.100    -0.049062
    4F  4  3 14.00      0.950      1.200    -0.221729
    Generation configuration:
    5S  1  0  2.00      1.100      1.600    -4.036775
    6S  2  0  2.00      1.100      1.600    -0.287998
    5P  2  1  6.00      1.100      1.600    -2.015412
    6P  3  1  0.00      1.100      1.600     0.300000
    4D  3  2 10.00      1.000      1.100   -13.077697
    5D  4  2  0.00      1.000      1.100    -0.048936
    4F  4  3 14.00      0.950      1.200    -0.221362
    4F  4  3  0.00      0.950      1.200     1.000000

    Pseudization used: troullier-martins
<PP_INPUTFILE>
 &input
   title='Yb',
   zed=70.0,
   rel=1,
   config='[Xe] 4f14.0 5d0.0 6s2. 6p0.',
   iswitch=3,
   dft='PBE'
 /
 &inputp
   lpaw=.true.,
   pseudotype=3,
   file_pseudopw='Yb.pbe-spdfn-kjpaw_psl.1.0.0.UPF',
   author='ADC',
   lloc=-1,
   rcloc=1.8,
   which_augfun='PSQ',
   rmatch_augfun_nc=.true.,
   nlcc=.true.,
   new_core_ps=.true.,
   rcore=1.2,
   tm=.true.
 /
8
5S  1  0  2.00  0.00  1.10  1.60  0.0
6S  2  0  2.00  0.00  1.10  1.60  0.0
5P  2  1  6.00  0.00  1.10  1.60  0.0
6P  3  1  0.00  0.30  1.10  1.60  0.0
4D  3  2 10.00  0.00  1.00  1.10  0.0
5D  4  2  0.00  0.00  1.00  1.10  0.0
4F  4  3 14.00  0.00  0.95  1.20  0.0
4F  4  3  0.00  1.00  0.95  1.20  0.0
</PP_INPUTFILE>
  </PP_INFO>
  <!--                               -->
  <!-- END OF HUMAN READABLE SECTION -->
  <!--                               -->
  <PP_HEADER generated='Generated using "atomic" code by A. Dal Corso  v.5.1.2'
             author="ADC"
             date="30Jul2016"
             comment=""
             element="Yb"
             pseudo_type="PAW"
             relativistic="scalar"
             is_ultrasoft="T"
             is_paw="T"
             is_coulomb="F"
             has_so="F"
             has_wfc="T"
             has_gipaw="T"
             paw_as_gipaw="T"
             core_correction="T"
             functional=" SLA  PW   PBX  PBC"
             z_valence="3.400000000000000E+001"
             total_psenergy="-1.774680878683949E+003"
             wfc_cutoff="1.407660348545826E+002"
             rho_cutoff="6.345059265823747E+002"
             l_max="3"
             l_max_rho="6"
             l_local="-1"
             mesh_size="1269"
             number_of_wfc="6"
             number_of_proj="8"/>
  <PP_MESH dx="1.250000000000000E-002" mesh="1269" xmin="-7.000000000000000E+000" rmax="1.000000000000000E+002"
zmesh="7.000000000000000E+001">
    <PP_R type="real" size="1269" columns="4">
 1.302688522220738E-005  1.319074326670032E-005  1.335666239166546E-005  1.352466852230363E-005 
 1.369478790991457E-005  1.386704713599870E-005  1.404147311641055E-005  1.421809310556445E-005 
 1.439693470069301E-005  1.457802584615935E-005  1.476139483782339E-005  1.494707032746312E-005 
 1.513508132725157E-005  1.532545721428995E-005  1.551822773519797E-005  1.571342301076169E-005 
 1.591107354064005E-005  1.611121020813046E-005  1.631386428499439E-005  1.651906743634368E-005 
 1.672685172558821E-005  1.693724961944590E-005  1.715029399301573E-005  1.736601813491450E-005 
 1.758445575247830E-005  1.780564097702928E-005  1.802960836920878E-005  1.825639292437749E-005 
 1.848603007808354E-005  1.871855571159943E-005  1.895400615752845E-005  1.919241820548181E-005 
 1.943382910782706E-005  1.967827658550882E-005  1.992579883394284E-005  2.017643452898402E-005 
 2.043022283296964E-005  2.068720340083851E-005  2.094741638632719E-005  2.121090244824410E-005 
 2.147770275682246E-005  2.174785900015331E-005  2.202141339069929E-005  2.229840867189046E-005 
 2.257888812480310E-005  2.286289557492235E-005  2.315047539899010E-005  2.344167253193894E-005 
 2.373653247391334E-005  2.403510129737916E-005  2.433742565432249E-005  2.464355278353918E-005 
 2.495353051801600E-005  2.526740729240458E-005  2.558523215058957E-005  2.590705475335164E-005 
 2.623292538612725E-005  2.656289496686573E-005  2.689701505398539E-005  2.723533785442966E-005 
 2.757791623182442E-005  2.792480371473810E-005  2.827605450504567E-005  2.863172348639770E-005 
 2.899186623279620E-005  2.935653901727798E-005  2.972579882070756E-005  3.009970334068049E-005 
 3.047831100053869E-005  3.086168095849935E-005  3.124987311689836E-005  3.164294813155024E-005 
 3.204096742122576E-005  3.244399317724867E-005  3.285208837321337E-005  3.326531677482448E-005 
 3.368374294986047E-005  3.410743227826248E-005  3.453645096235005E-005  3.497086603716547E-005 
 3.541074538094798E-005  3.585615772573998E-005  3.630717266812654E-005  3.676386068011000E-005 
 3.722629312012140E-005  3.769454224417031E-005  3.816868121713501E-005  3.864878412419467E-005 
 3.913492598240526E-005  3.962718275242127E-005  4.012563135036447E-005  4.063034965984240E-005 
 4.114141654411776E-005  4.165891185843097E-005  4.218291646247781E-005  4.271351223304372E-005 
 4.325078207679736E-005  4.379480994324490E-005  4.434568083784726E-005  4.490348083530258E-005 
 4.546829709299524E-005  4.604021786461466E-005  4.661933251394498E-005  4.720573152882832E-005 
 4.779950653530389E-005  4.840075031192445E-005  4.900955680425335E-005  4.962602113954362E-005 
 5.025023964160183E-005  5.088230984583899E-005  5.152233051451043E-005  5.217040165214776E-005 
 5.282662452118475E-005  5.349110165777972E-005  5.416393688783725E-005  5.484523534323091E-005 
 5.553510347823044E-005  5.623364908613548E-005  5.694098131611843E-005  5.765721069027941E-005 
 5.838244912091524E-005  5.911680992800624E-005  5.986040785692256E-005  6.061335909635343E-005 
 6.137578129646200E-005  6.214779358726812E-005  6.292951659726294E-005  6.372107247225717E-005 
 6.452258489446666E-005  6.533417910183819E-005  6.615598190761780E-005  6.698812172016588E-005 
 6.783072856302110E-005  6.868393409521694E-005  6.954787163185376E-005  7.042267616492932E-005 
 7.130848438443167E-005  7.220543469969734E-005  7.311366726103788E-005  7.403332398163892E-005 
 7.496454855973406E-005  7.590748650105822E-005  7.686228514158315E-005  7.782909367053893E-005 
 7.880806315372531E-005  7.979934655711571E-005  8.080309877075868E-005  8.181947663297979E-005 
 8.284863895488773E-005  8.389074654518931E-005  8.494596223531563E-005  8.601445090486513E-005 
 8.709637950736625E-005  8.819191709636430E-005  8.930123485183659E-005  9.042450610693925E-005 
 9.156190637509119E-005  9.271361337739838E-005  9.387980707042304E-005  9.506066967430248E-005 
 9.625638570122096E-005  9.746714198424039E-005  9.869312770649331E-005  9.993453443074301E-005 
 1.011915561293161E-004  1.024643892144100E-004  1.037532325687842E-004  1.050582875768348E-004 
 1.063797581560620E-004  1.077178507889325E-004  1.090727745551423E-004  1.104447411642867E-004 
 1.118339649889396E-004  1.132406630981499E-004  1.146650552913594E-004  1.161073641327459E-004 
 1.175678149860004E-004  1.190466360495401E-004  1.205440583921647E-004  1.220603159891621E-004 
 1.235956457588662E-004  1.251502875996775E-004  1.267244844275465E-004  1.283184822139302E-004 
 1.299325300242261E-004  1.315668800566877E-004  1.332217876818332E-004  1.348975114823459E-004 
 1.365943132934786E-004  1.383124582439670E-004  1.400522147974547E-004  1.418138547944430E-004 
 1.435976534947655E-004  1.454038896205981E-004  1.472328454000107E-004  1.490848066110644E-004 
 1.509600626264665E-004  1.528589064587847E-004  1.547816348062307E-004  1.567285480990212E-004 
 1.586999505463187E-004  1.606961501837666E-004  1.627174589216197E-004  1.647641925934803E-004 
 1.668366710056493E-004  1.689352179870945E-004  1.710601614400517E-004  1.732118333912586E-004 
 1.753905700438348E-004  1.775967118298156E-004  1.798306034633428E-004  1.820925939945296E-004 
 1.843830368639982E-004  1.867022899581069E-004  1.890507156648706E-004  1.914286809305833E-004 
 1.938365573171562E-004  1.962747210601735E-004  1.987435531276803E-004  2.012434392797105E-004 
 2.037747701285608E-004  2.063379411998269E-004  2.089333529942032E-004  2.115614110500629E-004 
 2.142225260068245E-004  2.169171136691135E-004  2.196455950717348E-004  2.224083965454584E-004 
 2.252059497836355E-004  2.280386919096517E-004  2.309070655452268E-004  2.338115188795775E-004 
 2.367525057394465E-004  2.397304856600137E-004  2.427459239567012E-004  2.457992917978769E-004 
 2.488910662784788E-004  2.520217304945595E-004  2.551917736187719E-004  2.584016909768045E-004 
 2.616519841247740E-004  2.649431609275984E-004  2.682757356383487E-004  2.716502289786037E-004 
 2.750671682198133E-004  2.785270872656857E-004  2.820305267356111E-004  2.855780340491347E-004 
 2.891701635114913E-004  2.928074764002180E-004  2.964905410528535E-004  3.002199329557433E-004 
 3.039962348339596E-004  3.078200367423539E-004  3.116919361577539E-004  3.156125380723206E-004 
 3.195824550880800E-004  3.236023075126424E-004  3.276727234561276E-004  3.317943389293082E-004 
 3.359677979429872E-004  3.401937526086269E-004  3.444728632402411E-004  3.488057984575719E-004 
 3.531932352905628E-004  3.576358592851450E-004  3.621343646103564E-004  3.666894541668062E-004 
 3.713018396965050E-004  3.759722418940759E-004  3.807013905193641E-004  3.854900245114641E-004 
 3.903388921041795E-004  3.952487509429369E-004  4.002203682031689E-004  4.052545207101872E-004 
 4.103519950605633E-004  4.155135877450354E-004  4.207401052729613E-004  4.260323642983387E-004 
 4.313911917474072E-004  4.368174249478585E-004  4.423119117596699E-004  4.478755107075841E-004 
 4.535090911152565E-004  4.592135332410867E-004  4.649897284157633E-004  4.708385791815338E-004 
 4.767609994332297E-004  4.827579145610651E-004  4.888302615952290E-004  4.949789893523004E-004 
 5.012050585835006E-004  5.075094421248138E-004  5.138931250489952E-004  5.203571048194891E-004 
 5.269023914462860E-004  5.335300076437375E-004  5.402409889903583E-004  5.470363840906380E-004 
 5.539172547388858E-004  5.608846760851402E-004  5.679397368031617E-004  5.750835392605407E-004 
 5.823171996909461E-004  5.896418483685365E-004  5.970586297845702E-004  6.045687028262331E-004 
 6.121732409577169E-004  6.198734324035768E-004  6.276704803343917E-004  6.355656030547646E-004 
 6.435600341936832E-004  6.516550228972772E-004  6.598518340240017E-004  6.681517483422711E-004 
 6.765560627305846E-004  6.850660903801639E-004  6.936831610001425E-004  7.024086210253369E-004 
 7.112438338266278E-004  7.201901799239911E-004  7.292490572022059E-004  7.384218811292772E-004 
 7.477100849776054E-004  7.571151200479401E-004  7.666384558961448E-004  7.762815805628213E-004 
 7.860460008058180E-004  7.959332423356628E-004  8.059448500539622E-004  8.160823882947899E-004 
 8.263474410691212E-004  8.367416123123365E-004  8.472665261348389E-004  8.579238270758278E-004 
 8.687151803602567E-004  8.796422721590319E-004  8.907068098524779E-004  9.019105222971196E-004 
 9.132551600958224E-004  9.247424958713222E-004  9.363743245432052E-004  9.481524636083663E-004 
 9.600787534249965E-004  9.721550575001456E-004  9.843832627808940E-004  9.967652799491953E-004 
 1.009303043720423E-003  1.021998513145674E-003  1.034853671917878E-003  1.047870528681745E-003 
 1.061051117347627E-003  1.074397497409320E-003  1.087911754265862E-003  1.101595999547382E-003 
 1.115452371445045E-003  1.129483035045153E-003  1.143690182667437E-003  1.158076034207618E-003 
 1.172642837484269E-003  1.187392868590037E-003  1.202328432247291E-003  1.217451862168241E-003 
 1.232765521419579E-003  1.248271802791720E-003  1.263973129172676E-003  1.279871953926639E-003 
 1.295970761277322E-003  1.312272066696127E-003  1.328778417295193E-003  1.345492392225381E-003 
 1.362416603079281E-003  1.379553694299269E-003  1.396906343590715E-003  1.414477262340376E-003 
 1.432269196040053E-003  1.450284924715587E-003  1.468527263361235E-003  1.486999062379524E-003 
 1.505703208026633E-003  1.524642622863374E-003  1.543820266211847E-003  1.563239134617843E-003 
 1.582902262319057E-003  1.602812721719196E-003  1.622973623868054E-003  1.643388118947606E-003 
 1.664059396764243E-003  1.684990687247180E-003  1.706185260953137E-003  1.727646429577381E-003 
 1.749377546471171E-003  1.771382007165733E-003  1.793663249902819E-003  1.816224756171937E-003 
 1.839070051254346E-003  1.862202704773881E-003  1.885626331254718E-003  1.909344590686150E-003 
 1.933361189094467E-003  1.957679879122036E-003  1.982304460613647E-003  2.007238781210260E-003 
 2.032486736950195E-003  2.058052272877904E-003  2.083939383660392E-003  2.110152114211384E-003 
 2.136694560323359E-003  2.163570869307524E-003  2.190785240641835E-003  2.218341926627186E-003 
 2.246245233051824E-003  2.274499519864148E-003  2.303109201853955E-003  2.332078749342263E-003 
 2.361412688879808E-003  2.391115603954322E-003  2.421192135706717E-003  2.451646983656269E-003 
 2.482484906434931E-003  2.513710722530879E-003  2.545329311041407E-003  2.577345612435298E-003 
 2.609764629324782E-003  2.642591427247204E-003  2.675831135456529E-003  2.709488947724790E-003 
 2.743570123153632E-003  2.778079986996052E-003  2.813023931488487E-003  2.848407416693360E-003 
 2.884235971352221E-003  2.920515193749630E-003  2.957250752587897E-003  2.994448387872826E-003 
 3.032113911810616E-003  3.070253209716010E-003  3.108872240931900E-003  3.147977039760485E-003 
 3.187573716406140E-003  3.227668457930156E-003  3.268267529217465E-003  3.309377273955556E-003 
 3.351004115625683E-003  3.393154558506545E-003  3.435835188690603E-003  3.479052675113154E-003 
 3.522813770594380E-003  3.567125312894482E-003  3.611994225782093E-003  3.657427520116144E-003 
 3.703432294941309E-003  3.750015738597249E-003  3.797185129841811E-003  3.844947838988341E-003 
 3.893311329057323E-003  3.942283156942474E-003  3.991870974591535E-003  4.042082530201900E-003 
 4.092925669431287E-003  4.144408336623648E-003  4.196538576050471E-003  4.249324533167725E-003 
 4.302774455888604E-003  4.356896695872275E-003  4.411699709828856E-003  4.467192060840770E-003 
 4.523382419700762E-003  4.580279566266727E-003  4.637892390833568E-003  4.696229895522345E-003 
 4.755301195686852E-003  4.815115521337922E-003  4.875682218585628E-003  4.937010751099636E-003 
 4.999110701587935E-003  5.061991773294126E-003  5.125663791513597E-003  5.190136705128735E-003 
 5.255420588163462E-003  5.321525641357329E-003  5.388462193759386E-003  5.456240704342130E-003 
 5.524871763635736E-003  5.594366095382843E-003  5.664734558214185E-003  5.735988147345240E-003 
 5.808137996294276E-003  5.881195378621982E-003  5.955171709692977E-003  6.030078548459508E-003 
 6.105927599267526E-003  6.182730713685536E-003  6.260499892356422E-003  6.339247286872569E-003 
 6.418985201674596E-003  6.499726095973910E-003  6.581482585699515E-003  6.664267445469267E-003 
 6.748093610585924E-003  6.832974179058345E-003  6.918922413648038E-003  7.005951743941519E-003 
 7.094075768448713E-003  7.183308256727727E-003  7.273663151536418E-003  7.365154571010919E-003 
 7.457796810871662E-003  7.551604346657110E-003  7.646591835985575E-003  7.742774120845532E-003 
 7.840166229914666E-003  7.938783380908167E-003  8.038640982956516E-003  8.139754639013185E-003 
 8.242140148292668E-003  8.345813508739086E-003  8.450790919525934E-003  8.557088783587226E-003 
 8.664723710180478E-003  8.773712517481970E-003  8.884072235214577E-003  8.995820107308719E-003 
 9.108973594596769E-003  9.223550377541315E-003  9.339568358997821E-003  9.457045667011917E-003 
 9.576000657651995E-003  9.696451917877354E-003  9.818418268442460E-003  9.941918766837745E-003 
 1.006697271026734E-002  1.019359963866433E-002  1.032181933774389E-002  1.045165184209488E-002 
 1.058311743831026E-002  1.071623666815689E-002  1.085103033178527E-002  1.098751949097959E-002 
 1.112572547244864E-002  1.126566987115824E-002  1.140737455370539E-002  1.155086166173504E-002 
 1.169615361539975E-002  1.184327311686286E-002  1.199224315384582E-002  1.214308700321998E-002 
 1.229582823464369E-002  1.245049071424512E-002  1.260709860835136E-002  1.276567638726451E-002 
 1.292624882908514E-002  1.308884102358397E-002  1.325347837612219E-002  1.342018661162108E-002 
 1.358899177858163E-002  1.375992025315460E-002  1.393299874326190E-002  1.410825429276974E-002 
 1.428571428571429E-002  1.446540645058049E-002  1.464735886463471E-002  1.483159995831179E-002 
 1.501815851965750E-002  1.520706369882656E-002  1.539834501263760E-002  1.559203234918503E-002 
 1.578815597250926E-002  1.598674652732545E-002  1.618783504381181E-002  1.639145294245818E-002 
 1.659763203897548E-002  1.680640454926702E-002  1.701780309446227E-002  1.723186070601401E-002 
 1.744861083085957E-002  1.766808733664693E-002  1.789032451702664E-002  1.811535709701029E-002 
 1.834322023839631E-002  1.857394954526416E-002  1.880758106953746E-002  1.904415131661719E-002 
 1.928369725108577E-002  1.952625630248280E-002  1.977186637115360E-002  2.002056583417106E-002 
 2.027239355133226E-002  2.052738887123036E-002  2.078559163740288E-002  2.104704219455737E-002 
 2.131178139487530E-002  2.157985060439533E-002  2.185129170947685E-002  2.212614712334476E-002 
 2.240445979271670E-002  2.268627320451349E-002  2.297163139265405E-002  2.326057894493587E-002 
 2.355316101000183E-002  2.384942330439490E-002  2.414941211970131E-002  2.445317432978379E-002 
 2.476075739810566E-002  2.507220938514712E-002  2.538757895591484E-002  2.570691538754585E-002 
 2.603026857700728E-002  2.635768904889287E-002  2.668922796331746E-002  2.702493712391100E-002 
 2.736486898591281E-002  2.770907666436793E-002  2.805761394242641E-002  2.841053527974703E-002 
 2.876789582100682E-002  2.912975140451737E-002  2.949615857094982E-002  2.986717457216938E-002 
 3.024285738018107E-002  3.062326569618799E-002  3.100845895976347E-002  3.139849735813861E-002 
 3.179344183560670E-002  3.219335410304584E-002  3.259829664756149E-002  3.300833274225007E-002 
 3.342352645608560E-002  3.384394266393059E-002  3.426964705667283E-002  3.470070615148984E-002 
 3.513718730224216E-002  3.557915870999760E-002  3.602668943368785E-002  3.647984940089895E-002 
 3.693870941879781E-002  3.740334118519574E-002  3.787381729975154E-002  3.835021127531531E-002 
 3.883259754941493E-002  3.932105149588724E-002  3.981564943665502E-002  4.031646865365285E-002 
 4.082358740090237E-002  4.133708491673944E-002  4.185704143619579E-002  4.238353820353526E-002 
 4.291665748494903E-002  4.345648258140951E-002  4.400309784168616E-002  4.455658867552565E-002 
 4.511704156699670E-002  4.568454408800392E-002  4.625918491197090E-002  4.684105382769534E-002 
 4.743024175337930E-002  4.802684075083472E-002  4.863094403986883E-002  4.924264601284967E-002 
 4.986204224945488E-002  5.048922953160676E-002  5.112430585859400E-002  5.176737046238487E-002 
 5.241852382313209E-002  5.307786768487292E-002  5.374550507142735E-002  5.442154030249518E-002 
 5.510607900995676E-002  5.579922815437793E-002  5.650109604172253E-002  5.721179234027613E-002 
 5.793142809778109E-002  5.866011575878873E-002  5.939796918222873E-002  6.014510365919943E-002 
 6.090163593098318E-002  6.166768420728635E-002  6.244336818471081E-002  6.322880906545625E-002 
 6.402412957625807E-002  6.482945398756439E-002  6.564490813295272E-002  6.647061942879241E-002 
 6.730671689415349E-002  6.815333117096575E-002  6.901059454443262E-002  6.987864096370008E-002 
 7.075760606278733E-002  7.164762718177947E-002  7.254884338828688E-002  7.346139549917559E-002 
 7.438542610256929E-002  7.532107958012986E-002  7.626850212961685E-002  7.722784178773096E-002 
 7.819924845324579E-002  7.918287391042891E-002  8.017887185275935E-002  8.118739790694211E-002 
 8.220860965722472E-002  8.324266667002114E-002  8.428973051884311E-002  8.534996480954746E-002 
 8.642353520589929E-002  8.751060945545695E-002  8.861135741578388E-002  8.972595108098809E-002 
 9.085456460859756E-002  9.199737434677234E-002  9.315455886185875E-002  9.432629896629192E-002 
 9.551277774684674E-002  9.671418059324677E-002  9.793069522713119E-002  9.916251173138622E-002 
 1.004098225798472E-001  1.016728226673714E-001  1.029517093402924E-001  1.042466824272548E-001 
 1.055579442704379E-001  1.068856997571727E-001  1.082301563519550E-001  1.095915241288632E-001 
 1.109700158043825E-001  1.123658467706413E-001  1.137792351290683E-001  1.152104017244696E-001 
 1.166595701795378E-001  1.181269669297925E-001  1.196128212589609E-001  1.211173653348055E-001 
 1.226408342453985E-001  1.241834660358572E-001  1.257455017455373E-001  1.273271854456962E-001 
 1.289287642776304E-001  1.305504884912904E-001  1.321926114843841E-001  1.338553898419705E-001 
 1.355390833765504E-001  1.372439551686644E-001  1.389702716079984E-001  1.407183024350083E-001 
 1.424883207830675E-001  1.442806032211436E-001  1.460954297970144E-001  1.479330840810242E-001 
 1.497938532103939E-001  1.516780279340859E-001  1.535859026582336E-001  1.555177754921450E-001 
 1.574739482948801E-001  1.594547267224195E-001  1.614604202754227E-001  1.634913423475874E-001 
 1.655478102746200E-001  1.676301453838173E-001  1.697386730442771E-001  1.718737227177363E-001 
 1.740356280100496E-001  1.762247267233181E-001  1.784413609086687E-001  1.806858769197032E-001 
 1.829586254666149E-001  1.852599616709876E-001  1.875902451212861E-001  1.899498399290398E-001 
 1.923391147857387E-001  1.947584430204395E-001  1.972082026581014E-001  1.996887764786521E-001 
 2.022005520767972E-001  2.047439219225850E-001  2.073192834227275E-001  2.099270389826992E-001 
 2.125675960696121E-001  2.152413672758828E-001  2.179487703837026E-001  2.206902284303147E-001 
 2.234661697741167E-001  2.262770281615919E-001  2.291232427950811E-001  2.320052584014123E-001 
 2.349235253013866E-001  2.378784994801449E-001  2.408706426584150E-001  2.439004223646551E-001 
 2.469683120081095E-001  2.500747909527756E-001  2.532203445923092E-001  2.564054644258665E-001 
 2.596306481349009E-001  2.628963996609296E-001  2.662032292842716E-001  2.695516537037840E-001 
 2.729421961175952E-001  2.763753863048545E-001  2.798517607085146E-001  2.833718625191476E-001 
 2.869362417598239E-001  2.905454553720518E-001  2.942000673028005E-001  2.979006485926205E-001 
 3.016477774648661E-001  3.054420394160478E-001  3.092840273073154E-001  3.131743414570924E-001 
 3.171135897348809E-001  3.211023876562375E-001  3.251413584789533E-001  3.292311333004371E-001 
 3.333723511563246E-001  3.375656591203322E-001  3.418117124053593E-001  3.461111744658711E-001 
 3.504647171015625E-001  3.548730205623264E-001  3.593367736545485E-001  3.638566738487299E-001 
 3.684334273884723E-001  3.730677494008285E-001  3.777603640080400E-001  3.825120044406879E-001 
 3.873234131522558E-001  3.921953419351443E-001  3.971285520381385E-001  4.021238142853522E-001 
 4.071819091966760E-001  4.123036271097291E-001  4.174897683033563E-001  4.227411431226711E-001 
 4.280585721056718E-001  4.334428861114565E-001  4.388949264500419E-001  4.444155450138237E-001 
 4.500056044106852E-001  4.556659780987786E-001  4.613975505230103E-001  4.672012172532310E-001 
 4.730778851241759E-001  4.790284723771566E-001  4.850539088035364E-001  4.911551358900175E-001 
 4.973331069657436E-001  5.035887873512649E-001  5.099231545093701E-001  5.163371981978133E-001 
 5.228319206239720E-001  5.294083366014370E-001  5.360674737085858E-001  5.428103724491400E-001 
 5.496380864147449E-001  5.565516824496003E-001  5.635522408171507E-001  5.706408553688848E-001 
 5.778186337152491E-001  5.850866973987114E-001  5.924461820690117E-001  5.998982376606001E-001 
 6.074440285723255E-001  6.150847338493709E-001  6.228215473674787E-001  6.306556780195041E-001 
 6.385883499042979E-001  6.466208025179824E-001  6.547542909476216E-001  6.629900860673282E-001 
 6.713294747368478E-001  6.797737600026243E-001  6.883242613014117E-001  6.969823146664351E-001 
 7.057492729361455E-001  7.146265059656116E-001  7.236154008405524E-001  7.327173620940814E-001 
 7.419338119261641E-001  7.512661904258350E-001  7.607159557962242E-001  7.702845845823938E-001 
 7.799735719020605E-001  7.897844316792070E-001  7.997186968806308E-001  8.097779197554839E-001 
 8.199636720778034E-001  8.302775453921141E-001  8.407211512621066E-001  8.512961215224427E-001 
 8.620041085337437E-001  8.728467854407624E-001  8.838258464338269E-001  8.949430070135560E-001 
 9.062000042589049E-001  9.175985970985993E-001  9.291405665859573E-001  9.408277161771957E-001 
 9.526618720132173E-001  9.646448832049450E-001  9.767786221222603E-001  9.890649846865520E-001 
 1.001505890666969E+000  1.014103283980385E+000  1.026859132995130E+000  1.039775430838568E+000 
 1.052854195708512E+000  1.066097471188584E+000  1.079507326567524E+000  1.093085857162513E+000 
 1.106835184646585E+000  1.120757457380131E+000  1.134854850746591E+000  1.149129567492362E+000 
 1.163583838070974E+000  1.178219920991616E+000  1.193040103172018E+000  1.208046700295800E+000 
 1.223242057174295E+000  1.238628548112927E+000  1.254208577282213E+000  1.269984579093405E+000 
 1.285959018578883E+000  1.302134391777321E+000  1.318513226123684E+000  1.335098080844168E+000 
 1.351891547356059E+000  1.368896249672670E+000  1.386114844813335E+000  1.403550023218572E+000 
 1.421204509170485E+000  1.439081061218416E+000  1.457182472609996E+000  1.475511571727584E+000 
 1.494071222530203E+000  1.512864325001058E+000  1.531893815600637E+000  1.551162667725566E+000 
 1.570673892173194E+000  1.590430537612034E+000  1.610435691058133E+000  1.630692478357415E+000 
 1.651204064674110E+000  1.671973654985313E+000  1.693004494581762E+000  1.714299869574937E+000 
 1.735863107410500E+000  1.757697577388236E+000  1.779806691188506E+000  1.802193903405317E+000 
 1.824862712086129E+000  1.847816659278414E+000  1.871059331583123E+000  1.894594360715095E+000 
 1.918425424070507E+000  1.942556245301502E+000  1.966990594897982E+000  1.991732290776788E+000 
 2.016785198878243E+000  2.042153233770200E+000  2.067840359259731E+000  2.093850589012445E+000 
 2.120187987179666E+000  2.146856669033443E+000  2.173860801609566E+000  2.201204604358699E+000 
 2.228892349805645E+000  2.256928364216964E+000  2.285317028276952E+000  2.314062777772119E+000 
 2.343170104284314E+000  2.372643555892516E+000  2.402487737883507E+000  2.432707313471445E+000 
 2.463307004526491E+000  2.494291592312635E+000  2.525665918234749E+000  2.557434884595095E+000 
 2.589603455359305E+000  2.622176656932000E+000  2.655159578942205E+000  2.688557375038578E+000 
 2.722375263694714E+000  2.756618529024523E+000  2.791292521607871E+000  2.826402659326654E+000 
 2.861954428211312E+000  2.897953383298070E+000  2.934405149496905E+000  2.971315422470437E+000 
 3.008689969523925E+000  3.046534630506372E+000  3.084855318723059E+000  3.123658021859488E+000 
 3.162948802916960E+000  3.202733801159961E+000  3.243019233075402E+000  3.283811393343984E+000 
 3.325116655823747E+000  3.366941474545980E+000  3.409292384723712E+000  3.452176003772811E+000 
 3.495599032346005E+000  3.539568255379862E+000  3.584090543154923E+000  3.629172852369247E+000 
 3.674822227225357E+000  3.721045800530954E+000  3.767850794813418E+000  3.815244523448316E+000 
 3.863234391802186E+000  3.911827898389579E+000  3.961032636044771E+000  4.010856293108136E+000 
 4.061306654627442E+000  4.112391603574333E+000  4.164119122076002E+000  4.216497292662462E+000 
 4.269534299529437E+000  4.323238429817141E+000  4.377618074905208E+000  4.432681731723806E+000 
 4.488438004081345E+000  4.544895604008829E+000  4.602063353121093E+000  4.659950183995262E+000 
 4.718565141566413E+000  4.777917384540929E+000  4.838016186827536E+000  4.898870938986349E+000 
 4.960491149696216E+000  5.022886447240412E+000  5.086066581011130E+000  5.150041423032825E+000 
 5.214820969504698E+000  5.280415342362703E+000  5.346834790861031E+000  5.414089693173651E+000 
 5.482190558015889E+000  5.551148026286412E+000  5.620972872729950E+000  5.691676007620799E+000 
 5.763268478467644E+000  5.835761471739722E+000  5.909166314614697E+000  5.983494476748633E+000 
 6.058757572068065E+000  6.134967360584771E+000  6.212135750233267E+000  6.290274798731413E+000 
 6.369396715464537E+000  6.449513863393079E+000  6.530638760984414E+000  6.612784084168851E+000 
 6.695962668320243E+000  6.780187510261613E+000  6.865471770295848E+000  6.951828774262103E+000 
 7.039272015617954E+000  7.127815157547744E+000  7.217472035097564E+000  7.308256657336917E+000 
 7.400183209547743E+000  7.493266055440864E+000  7.587519739400302E+000  7.682958988755963E+000 
 7.779598716084706E+000  7.877454021540554E+000  7.976540195214086E+000  8.076872719521504E+000 
 8.178467271623884E+000  8.281339725876663E+000  8.385506156310127E+000  8.490982839140974E+000 
 8.597786255315460E+000  8.705933093084687E+000  8.815440250612053E+000  8.926324838613727E+000 
 9.038604183032200E+000  9.152295827743441E+000  9.267417537298272E+000  9.383987299697997E+000 
 9.502023329205169E+000  9.621544069189563E+000  9.742568195009936E+000  9.865114616932205E+000 
 9.989202483084084E+000  1.011485118244713E+001  1.024208034788628E+001  1.037090985921745E+001 
 1.050135984631391E+001  1.063345069225153E+001  1.076720303649373E+001  1.090263777811645E+001 
 1.103977607907357E+001  1.117863936750367E+001  1.131924934107803E+001  1.146162797039113E+001 