<UPF version="2.0.1">
  <PP_INFO>
    Generated using "atomic" code by A. Dal Corso  v.5.1.2
    Author: ADC
    Generation date: 30Jul2016
    Pseudopotential type: USPP
    Element: Zr
    Functional: PBE

    Suggested minimum cutoff for wavefunctions:  46. Ry
    Suggested minimum cutoff for charge density: 267. Ry
    The Pseudo was generated with a Scalar-Relativistic Calculation
    Local Potential by smoothing AE potential with Bessel fncs, cutoff radius:   1.5000
    Pseudopotential contains additional information for GIPAW reconstruction.

    Valence configuration: 
    nl pn  l   occ       Rcut    Rcut US       E pseu
    4S  1  0  2.00      1.200      1.300    -4.005968
    5S  2  0  2.00      1.200      1.300    -0.326264
    4P  2  1  6.00      1.200      1.500    -2.385838
    5P  3  1  0.00      1.200      1.500    -0.107984
    4D  3  2  2.00      1.200      1.600    -0.264491
    Generation configuration:
    4S  1  0  2.00      1.200      1.300    -4.006009
    5S  2  0  2.00      1.200      1.300    -0.326276
    4P  2  1  6.00      1.200      1.500    -2.385870
    5P  3  1  0.00      1.200      1.500    -0.107989
    4D  3  2  2.00      1.200      1.600    -0.264514
    4D  3  2  0.00      1.200      1.600     0.500000

    Pseudization used: troullier-martins
<PP_INPUTFILE>
 &input
   title='Zr',
   zed=40.,
   rel=1,
   config='[Kr] 5s2 5p0 4d2',
   iswitch=3,
   dft='PBE'
 /
 &inputp
   lpaw=.false.,
   pseudotype=3,
   file_pseudopw='Zr.pbe-spn-rrkjus_psl.1.0.0.UPF',
   author='ADC',
   lloc=-1,
   rcloc=1.5,
   which_augfun='PSQ',
   rmatch_augfun_nc=.true.,
   nlcc=.true.,
   new_core_ps=.true.,
   rcore=1.2,
   tm=.true.
 /
6
4S  1  0  2.00  0.00  1.20  1.30  0.0
5S  2  0  2.00  0.00  1.20  1.30  0.0
4P  2  1  6.00  0.00  1.20  1.50  0.0
5P  3  1  0.00  0.00  1.20  1.50  0.0
4D  3  2  2.00  0.00  1.20  1.60  0.0
4D  3  2  0.00  0.50  1.20  1.60  0.0
</PP_INPUTFILE>
  </PP_INFO>
  <!--                               -->
  <!-- END OF HUMAN READABLE SECTION -->
  <!--                               -->
  <PP_HEADER generated='Generated using "atomic" code by A. Dal Corso  v.5.1.2'
             author="ADC"
             date="30Jul2016"
             comment=""
             element="Zr"
             pseudo_type="USPP"
             relativistic="scalar"
             is_ultrasoft="T"
             is_paw="F"
             is_coulomb="F"
             has_so="F"
             has_wfc="F"
             has_gipaw="T"
             paw_as_gipaw="F"
             core_correction="T"
             functional="PBE"
             z_valence="1.200000000000000E+001"
             total_psenergy="-9.886962991518580E+001"
             wfc_cutoff="4.555094013873924E+001"
             rho_cutoff="2.674530883966893E+002"
             l_max="2"
             l_max_rho="4"
             l_local="-1"
             mesh_size="1225"
             number_of_wfc="5"
             number_of_proj="6"/>
  <PP_MESH dx="1.250000000000000E-002" mesh="1225" xmin="-7.000000000000000E+000" rmax="1.000000000000000E+002"
zmesh="4.000000000000000E+001">
    <PP_R type="real" size="1225" columns="4">
 2.279704913886291E-005  2.308380071672556E-005  2.337415918541456E-005  2.366816991403135E-005 
 2.396587884235050E-005  2.426733248799772E-005  2.457257795371847E-005  2.488166293473778E-005 
 2.519463572621276E-005  2.551154523077886E-005  2.583244096619093E-005  2.615737307306046E-005 
 2.648639232269025E-005  2.681955012500742E-005  2.715689853659645E-005  2.749849026883296E-005 
 2.784437869612008E-005  2.819461786422831E-005  2.854926249874019E-005  2.890836801360144E-005 
 2.927199051977936E-005  2.964018683403032E-005  3.001301448777752E-005  3.039053173610037E-005 
 3.077279756683703E-005  3.115987170980124E-005  3.155181464611536E-005  3.194868761766061E-005 
 3.235055263664620E-005  3.275747249529900E-005  3.316951077567479E-005  3.358673185959317E-005 
 3.400920093869735E-005  3.443698402464042E-005  3.487014795939997E-005  3.530876042572204E-005 
 3.575288995769686E-005  3.620260595146739E-005  3.665797867607257E-005  3.711907928442717E-005 
 3.758597982443931E-005  3.805875325026829E-005  3.853747343372376E-005  3.902221517580830E-005 
 3.951305421840543E-005  4.001006725611411E-005  4.051333194823266E-005  4.102292693089315E-005 
 4.153893182934835E-005  4.206142727041353E-005  4.259049489506435E-005  4.312621737119356E-005 
 4.366867840652799E-005  4.421796276170802E-005  4.477415626353175E-005  4.533734581836538E-005 
 4.590761942572268E-005  4.648506619201502E-005  4.706977634447443E-005  4.766184124525192E-005 
 4.826135340569274E-005  4.886840650079168E-005  4.948309538382992E-005  5.010551610119598E-005 
 5.073576590739335E-005  5.137394328023647E-005  5.202014793623823E-005  5.267448084619085E-005 
 5.333704425094270E-005  5.400794167737386E-005  5.468727795457213E-005  5.537515923021292E-005 
 5.607169298714508E-005  5.677698806018517E-005  5.749115465312340E-005  5.821430435594284E-005 
 5.894655016225582E-005  5.968800648695933E-005  6.043878918411258E-005  6.119901556503958E-005 
 6.196880441665896E-005  6.274827602004496E-005  6.353755216922146E-005  6.433675619019250E-005 
 6.514601296021246E-005  6.596544892729804E-005  6.679519212998626E-005  6.763537221734066E-005 
 6.848612046920921E-005  6.934756981673721E-005  7.021985486313782E-005  7.110311190472419E-005 
 7.199747895220607E-005  7.290309575225419E-005  7.382010380933616E-005  7.474864640782651E-005 
 7.568886863439538E-005  7.664091740067857E-005  7.760494146623272E-005  7.858109146177951E-005 
 7.956951991274167E-005  8.057038126307566E-005  8.158383189940370E-005  8.261003017544955E-005 
 8.364913643678181E-005  8.470131304586779E-005  8.576672440744337E-005  8.684553699420134E-005 
 8.793791937280321E-005  8.904404223021825E-005  9.016407840039326E-005  9.129820289125858E-005 
 9.244659291207330E-005  9.360942790111450E-005  9.478688955371519E-005  9.597916185065409E-005 
 9.718643108690326E-005  9.840888590073708E-005  9.964671730320726E-005  1.009001187079890E-004 
 1.021692859616017E-004  1.034544173740109E-004  1.047557137496145E-004  1.060733784186185E-004 
 1.074076172688085E-004  1.087586387777192E-004  1.101266540452102E-004  1.115118768264500E-004 
 1.129145235653167E-004  1.143348134282168E-004  1.157729683383311E-004  1.172292130102903E-004 
 1.187037749852869E-004  1.201968846666296E-004  1.217087753557441E-004  1.232396832886263E-004 
 1.247898476727554E-004  1.263595107244704E-004  1.279489177068163E-004  1.295583169678681E-004 
 1.311879599795346E-004  1.328381013768519E-004  1.345089989977705E-004  1.362009139234431E-004 
 1.379141105190193E-004  1.396488564749525E-004  1.414054228488277E-004  1.431840841077146E-004 
 1.449851181710535E-004  1.468088064540813E-004  1.486554339118024E-004  1.505252890835140E-004 
 1.524186641378910E-004  1.543358549186375E-004  1.562771609907140E-004  1.582428856871437E-004 
 1.602333361564096E-004  1.622488234104472E-004  1.642896623732403E-004  1.663561719300293E-004 
 1.684486749771367E-004  1.705674984724207E-004  1.727129734863633E-004  1.748854352538003E-004 
 1.770852232263031E-004  1.793126811252175E-004  1.815681569953723E-004  1.838520032594609E-004 
 1.861645767731084E-004  1.885062388806319E-004  1.908773554714990E-004  1.932782970375018E-004 
 1.957094387306443E-004  1.981711604217624E-004  2.006638467598790E-004  2.031878872323053E-004 
 2.057436762255008E-004  2.083316130866952E-004  2.109521021862883E-004  2.136055529810337E-004 
 2.162923800780159E-004  2.190130032994357E-004  2.217678477482065E-004  2.245573438743779E-004 
 2.273819275423956E-004  2.302420400992035E-004  2.331381284432082E-004  2.360706450941053E-004 
 2.390400482635876E-004  2.420468019269423E-004  2.450913758955457E-004  2.481742458902753E-004 
 2.512958936158396E-004  2.544568068360467E-004  2.576574794500188E-004  2.608984115693626E-004 
 2.641801095963164E-004  2.675030863028732E-004  2.708678609109038E-004  2.742749591732872E-004 
 2.777249134560577E-004  2.812182628215916E-004  2.847555531128344E-004  2.883373370385906E-004 
 2.919641742598863E-004  2.956366314774154E-004  2.993552825200906E-004  3.031207084347025E-004 
 3.069334975767109E-004  3.107942457021773E-004  3.147035560608500E-004  3.186620394904267E-004 
 3.226703145119968E-004  3.267290074266870E-004  3.308387524135235E-004  3.350001916285207E-004 
 3.392139753050234E-004  3.434807618553036E-004  3.478012179734405E-004  3.521760187394934E-004 
 3.566058477249814E-004  3.610913970996970E-004  3.656333677398556E-004  3.702324693376100E-004 
 3.748894205119429E-004  3.796049489209486E-004  3.843797913755358E-004  3.892146939545523E-004 
 3.941104121213621E-004  3.990677108418906E-004  4.040873647041468E-004  4.091701580392607E-004 
 4.143168850440314E-004  4.195283499050240E-004  4.248053669242271E-004  4.301487606462846E-004 
 4.355593659873378E-004  4.410380283654791E-004  4.465856038328508E-004  4.522029592094078E-004 
 4.578909722183545E-004  4.636505316232971E-004  4.694825373671102E-004  4.753879007125564E-004 
 4.813675443846733E-004  4.874224027149499E-004  4.935534217873196E-004  4.997615595859858E-004 
 5.060477861451098E-004  5.124130837003815E-004  5.188584468424935E-004  5.253848826725508E-004 
 5.319934109594294E-004  5.386850642991193E-004  5.454608882760693E-004  5.523219416265611E-004 
 5.592692964041400E-004  5.663040381471242E-004  5.734272660482232E-004  5.806400931262893E-004 
 5.879436464002277E-004  5.953390670650970E-004  6.028275106704219E-004  6.104101473007508E-004 
 6.180881617584850E-004  6.258627537490037E-004  6.337351380681236E-004  6.417065447919108E-004 
 6.497782194688837E-004  6.579514233146328E-004  6.662274334088872E-004  6.746075428950622E-004 
 6.830930611823143E-004  6.916853141501394E-004  7.003856443555456E-004  7.091954112428275E-004 
 7.181159913559859E-004  7.271487785538119E-004  7.362951842276822E-004  7.455566375220927E-004 
 7.549345855579625E-004  7.644304936587524E-004  7.740458455794224E-004  7.837821437382722E-004 
 7.936409094516988E-004  8.036236831719017E-004  8.137320247275858E-004  8.239675135676841E-004 
 8.343317490081519E-004  8.448263504818639E-004  8.554529577916508E-004  8.662132313665257E-004 
 8.771088525211260E-004  8.881415237184242E-004  8.993129688357417E-004  9.106249334341059E-004 
 9.220791850310004E-004  9.336775133765406E-004  9.454217307331271E-004  9.573136721586165E-004 
 9.693551957930503E-004  9.815481831489954E-004  9.938945394055330E-004  1.006396193705946E-003 
 1.019055099459156E-003  1.031873234644939E-003  1.044852602122998E-003  1.057995229945908E-003 
 1.071303171676005E-003  1.084778506706259E-003  1.098423340585186E-003  1.112239805345838E-003 
 1.126230059838946E-003  1.140396290070235E-003  1.154740709542003E-003  1.169265559598974E-003 
 1.183973109778523E-003  1.198865658165287E-003  1.213945531750249E-003  1.229215086794340E-003 
 1.244676709196599E-003  1.260332814866985E-003  1.276185850103860E-003  1.292238291976235E-003 
 1.308492648710810E-003  1.324951460083895E-003  1.341617297818253E-003  1.358492765984937E-003 
 1.375580501410182E-003  1.392883174087410E-003  1.410403487594434E-003  1.428144179515882E-003 
 1.446108021870962E-003  1.464297821546589E-003  1.482716420735968E-003  1.501366697382699E-003 
 1.520251565630449E-003  1.539373976278306E-003  1.558736917241837E-003  1.578343414019959E-003 
 1.598196530167689E-003  1.618299367774814E-003  1.638655067950609E-003  1.659266811314641E-003 
 1.680137818493744E-003  1.701271350625255E-003  1.722670709866565E-003  1.744339239911092E-003 
 1.766280326510741E-003  1.788497398004930E-003  1.810993925856286E-003  1.833773425193053E-003 
 1.856839455358348E-003  1.880195620466311E-003  1.903845569965258E-003  1.927792999207918E-003 
 1.952041650028829E-003  1.976595311329017E-003  2.001457819668015E-003  2.026633059863331E-003 
 2.052124965597470E-003  2.077937520032564E-003  2.104074756432760E-003  2.130540758794422E-003 
 2.157339662484262E-003  2.184475654885509E-003  2.211952976052183E-003  2.239775919371618E-003 
 2.267948832235314E-003  2.296476116718222E-003  2.325362230266587E-003  2.354611686394417E-003 
 2.384229055388741E-003  2.414218965023722E-003  2.444586101283751E-003  2.475335209095657E-003 
 2.506471093070094E-003  2.537998618252277E-003  2.569922710882161E-003  2.602248359164166E-003 
 2.634980614046608E-003  2.668124590010905E-003  2.701685465870733E-003  2.735668485581225E-003 
 2.770078959058349E-003  2.804922263008593E-003  2.840203841769094E-003  2.875929208158311E-003 
 2.912103944337426E-003  2.948733702682564E-003  2.985824206667991E-003  3.023381251760418E-003 
 3.061410706324549E-003  3.099918512540032E-003  3.138910687329933E-003  3.178393323300890E-003 
 3.218372589695106E-003  3.258854733354292E-003  3.299846079695757E-003  3.341353033700763E-003 
 3.383382080915318E-003  3.425939788463562E-003  3.469032806073882E-003  3.512667867117954E-003 
 3.556851789662842E-003  3.601591477536332E-003  3.646893921405685E-003  3.692766199869921E-003 
 3.739215480565878E-003  3.786249021288167E-003  3.833874171123212E-003  3.882098371597575E-003 
 3.930929157840692E-003  3.980374159762259E-003  4.030441103244422E-003  4.081137811348961E-003 
 4.132472205539664E-003  4.184452306920064E-003  4.237086237486755E-003  4.290382221398471E-003 
 4.344348586261129E-003  4.398993764429038E-003  4.454326294322462E-003  4.510354821761772E-003 
 4.567088101318369E-003  4.624534997682607E-003  4.682704487048927E-003  4.741605658518383E-003 
 4.801247715518856E-003  4.861639977243091E-003  4.922791880104851E-003  4.984712979213379E-003 
 5.047412949866386E-003  5.110901589061852E-003  5.175188817028819E-003  5.240284678777445E-003 
 5.306199345668577E-003  5.372943117003016E-003  5.440526421630825E-003  5.508959819580850E-003 
 5.578254003710746E-003  5.648419801377772E-003  5.719468176130563E-003  5.791410229422223E-003 
 5.864257202344946E-003  5.938020477386454E-003  6.012711580208554E-003  6.088342181448020E-003 
 6.164924098540165E-003  6.242469297565343E-003  6.320989895118661E-003  6.400498160203253E-003 
 6.481006516147291E-003  6.562527542545185E-003  6.645073977223169E-003  6.728658718229597E-003 
 6.813294825850316E-003  6.898995524649331E-003  6.985774205535186E-003  7.073644427853326E-003 
 7.162619921504752E-003  7.252714589091385E-003  7.343942508088323E-003  7.436317933043518E-003 
 7.529855297805058E-003  7.624569217776482E-003  7.720474492200498E-003  7.817586106471347E-003 
 7.915919234476335E-003  8.015489240966771E-003  8.116311683958743E-003  8.218402317164104E-003 
 8.321777092451991E-003  8.426452162341362E-003  8.532443882524849E-003  8.639768814424364E-003 
 8.748443727778886E-003  8.858485603264720E-003  8.969911635148795E-003  9.082739233975286E-003 
 9.196986029286059E-003  9.312669872375326E-003  9.429808839078926E-003  9.548421232598728E-003 
 9.668525586362537E-003  9.790140666919975E-003  9.913285476874823E-003  1.003797925785417E-002 
 1.016424149351498E-002  1.029209191258847E-002  1.042155049196271E-002  1.055263745980414E-002 
 1.068537329871817E-002  1.081977874894969E-002  1.095587481162374E-002  1.109368275202700E-002 
 1.123322410293054E-002  1.137452066795434E-002  1.151759452497415E-002  1.166246802957122E-002 
 1.180916381852537E-002  1.195770481335210E-002  1.210811422388407E-002  1.226041555189766E-002 
 1.241463259478525E-002  1.257078944927352E-002  1.272891051518873E-002  1.288902049926911E-002 
 1.305114441902541E-002  1.321530760664994E-002  1.338153571297476E-002  1.354985471147968E-002 
 1.372029090235067E-002  1.389287091658929E-002  1.406762172017390E-002  1.424457061827307E-002 
 1.442374525951217E-002  1.460517364029340E-002  1.478888410917039E-002  1.497490537127764E-002 
 1.516326649281583E-002  1.535399690559345E-002  1.554712641162551E-002  1.574268518779026E-002 
 1.594070379054435E-002  1.614121316069730E-002  1.634424462824619E-002  1.654982991727086E-002 
 1.675800115089099E-002  1.696879085628537E-002  1.718223196977431E-002  1.739835784196605E-002 
 1.761720224296784E-002  1.783879936766257E-002  1.806318384105182E-002  1.829039072366604E-002 
 1.852045551704295E-002  1.875341416927455E-002  1.898930308062422E-002  1.922815910921428E-002 
 1.947001957678512E-002  1.971492227452692E-002  1.996290546898443E-002  2.021400790803632E-002 
 2.046826882694956E-002  2.072572795451001E-002  2.098642551923019E-002  2.125040225563496E-002 
 2.151769941062646E-002  2.178835874992896E-002  2.206242256461489E-002  2.233993367771290E-002 
 2.262093545089900E-002  2.290547179127195E-002  2.319358715821384E-002  2.348532657033690E-002 
 2.378073561251785E-002  2.407986044302055E-002  2.438274780070833E-002  2.468944501234705E-002 
 2.500000000000000E-002  2.531446128851587E-002  2.563287801311073E-002  2.595529992704564E-002 
 2.628177740940062E-002  2.661236147294648E-002  2.694710377211579E-002  2.728605661107380E-002 
 2.762927295189120E-002  2.797680642281953E-002  2.832871132667066E-002  2.868504264930181E-002 
 2.904585606820709E-002  2.941120796121728E-002  2.978115541530897E-002  3.015575623552452E-002 
 3.053506895400425E-002  3.091915283913213E-002  3.130806790479663E-002  3.170187491976801E-002 
 3.210063541719353E-002  3.250441170421228E-002  3.291326687169055E-002  3.332726480408009E-002 
 3.374647018940010E-002  3.417094852934491E-002  3.460076614951879E-002  3.503599020979935E-002 
 3.547668871483145E-002  3.592293052465313E-002  3.637478536545503E-002  3.683232384047540E-002 
 3.729561744103177E-002  3.776473855769184E-002  3.823976049158449E-002  3.872075746585333E-002 
 3.920780463725423E-002  3.970097810789860E-002  4.020035493714459E-002  4.070601315363778E-002 
 4.121803176750320E-002  4.173649078269108E-002  4.226147120947730E-002  4.279305507712163E-002 
 4.333132544668491E-002  4.387636642400746E-002  4.442826317285097E-002  4.498710192820523E-002 
 4.555297000976275E-002  4.612595583556253E-002  4.670614893580556E-002  4.729363996684426E-002 
 4.788852072534742E-002  4.849088416264388E-002  4.910082439924621E-002  4.971843673955730E-002 
 5.034381768676192E-002  5.097706495790540E-002  5.161827749916219E-002  5.226755550129643E-002 
 5.292500041531687E-002  5.359071496832899E-002  5.426480317958608E-002  5.494737037674258E-002 
 5.563852321231173E-002  5.633836968033022E-002  5.704701913323260E-002  5.776458229893762E-002 
 5.849117129814980E-002  5.922689966187854E-002  5.997188234917745E-002  6.072623576510722E-002 
 6.149007777892377E-002  6.226352774249581E-002  6.304670650895375E-002  6.383973645157318E-002 
 6.464274148289617E-002  6.545584707409255E-002  6.627918027456520E-002  6.711286973180181E-002 
 6.795704571147612E-002  6.881184011780268E-002  6.967738651414629E-002  7.055382014389248E-002 
 7.144127795157915E-002  7.233989860429403E-002  7.324982251334262E-002  7.417119185618672E-002 
 7.510415059866080E-002  7.604884451746664E-002  7.700542122295077E-002  7.797403018216989E-002 
 7.895482274224422E-002  7.994795215400687E-002  8.095357359594908E-002  8.197184419846684E-002 
 8.300292306841378E-002  8.404697131396076E-002  8.510415206977044E-002  8.617463052248693E-002 
 8.725857393654604E-002  8.835615168031183E-002  8.946753525253950E-002  9.059289830917353E-002 
 9.173241669048117E-002  9.288626844852760E-002  9.405463387499786E-002  9.523769552936656E-002 
 9.643563826742432E-002  9.764864927016137E-002  9.887691807301444E-002  1.001206365954832E-001 
 1.013799991711169E-001  1.026552025778803E-001  1.039464460689003E-001  1.052539314035990E-001 
 1.065778628792206E-001  1.079184473627511E-001  1.092758943232439E-001  1.106504158645484E-001 
 1.120422267584516E-001  1.134515444782377E-001  1.148785892326672E-001  1.163235840003867E-001 
 1.177867545647686E-001  1.192683295491901E-001  1.207685404527571E-001  1.222876216864752E-001 
 1.238258106098778E-001  1.253833475681141E-001  1.269604759295020E-001  1.285574421235573E-001 
 1.301744956794963E-001  1.318118892652272E-001  1.334698787268295E-001  1.351487231285292E-001 
 1.368486847931801E-001  1.385700293432506E-001  1.403130257423289E-001  1.420779463371487E-001 
 1.438650669001433E-001  1.456746666725370E-001  1.475070284079754E-001  1.493624384167080E-001 
 1.512411866103238E-001  1.531435665470497E-001  1.550698754776218E-001  1.570204143917291E-001 
 1.589954880650457E-001  1.609954051068516E-001  1.630204780082528E-001  1.650710231910109E-001 
 1.671473610569818E-001  1.692498160381818E-001  1.713787166474796E-001  1.735343955299259E-001 
 1.757171895147325E-001  1.779274396678999E-001  1.801654913455116E-001  1.824316942476959E-001 
 1.847264024732663E-001  1.870499745750522E-001  1.894027736159212E-001  1.917851672255107E-001 
 1.941975276576695E-001  1.966402318486223E-001  1.991136614758695E-001  2.016182030178219E-001 
 2.041542478141912E-001  2.067221921271369E-001  2.093224372031816E-001  2.119553893359095E-001 
 2.146214599294474E-001  2.173210655627500E-001  2.200546280546903E-001  2.228225745299684E-001 
 2.256253374858533E-001  2.284633548597582E-001  2.313370700976722E-001  2.342469322234484E-001 
 2.371933959089632E-001  2.401769215451628E-001  2.431979753139972E-001  2.462570292612645E-001 
 2.493545613703682E-001  2.524910556370014E-001  2.556670021447752E-001  2.588828971417924E-001 
 2.621392431181893E-001  2.654365488846503E-001  2.687753296519089E-001  2.721561071112537E-001 
 2.755794095160401E-001  2.790457717642341E-001  2.825557354819898E-001  2.861098491082780E-001 
 2.897086679805850E-001  2.933527544216804E-001  2.970426778274849E-001  3.007790147560385E-001 
 3.045623490175868E-001  3.083932717658067E-001  3.122723815901703E-001  3.162002846094806E-001 
 3.201775945665760E-001  3.242049329242284E-001  3.282829289622508E-001  3.324122198758197E-001 
 3.365934508750427E-001  3.408272752857691E-001  3.451143546516774E-001  3.494553588376412E-001 
 3.538509661343952E-001  3.583018633645237E-001  3.628087459897731E-001  3.673723182197235E-001 
 3.719932931218212E-001  3.766723927327948E-001  3.814103481714795E-001  3.862078997530506E-001 
 3.910657971047043E-001  3.959847992827858E-001  4.009656748913919E-001  4.060092022024714E-001 
 4.111161692774266E-001  4.162873740902536E-001  4.215236246522262E-001  4.268257391381465E-001 
 4.321945460141916E-001  4.376308841673572E-001  4.431356030365411E-001  4.487095627452664E-001 
 4.543536342360767E-001  4.600686994066268E-001  4.658556512474754E-001  4.717153939816221E-001 
 4.776488432057917E-001  4.836569260334954E-001  4.897405812399005E-001  4.959007594085083E-001 
 5.021384230796917E-001  5.084545469010907E-001  5.148501177799009E-001  5.213261350370859E-001 
 5.278836105635156E-001  5.345235689780836E-001  5.412470477878019E-001  5.480550975499118E-001 
 5.549487820360416E-001  5.619291783984156E-001  5.689973773381682E-001  5.761544832757650E-001 
 5.834016145235681E-001  5.907399034605813E-001  5.981704967093788E-001  6.056945553152745E-001 
 6.133132549277344E-001  6.210277859840712E-001  6.288393538954600E-001  6.367491792352774E-001 
 6.447584979298265E-001  6.528685614514498E-001  6.610806370140700E-001  6.693960077712039E-001 
 6.778159730164477E-001  6.863418483865025E-001  6.949749660667423E-001  7.037166749993664E-001 
 7.125683410941830E-001  7.215313474420258E-001  7.306070945308736E-001  7.397970004646746E-001 
 7.491025011849256E-001  7.585250506950489E-001  7.680661212875733E-001  7.777272037741916E-001 
 7.875098077186992E-001  7.974154616728625E-001  8.074457134152681E-001  8.176021301931543E-001 
 8.278862989673078E-001  8.382998266600241E-001  8.488443404061888E-001  8.595214878075307E-001 
 8.703329371900512E-001  8.812803778647135E-001  8.923655203913977E-001  9.035900968461734E-001 
 9.149558610919509E-001  9.264645890525148E-001  9.381180789900251E-001  9.499181517859950E-001 
 9.618666512258034E-001  9.739654442868005E-001  9.862164214300139E-001  9.986214968955484E-001 
 1.011182609001686E+000  1.023901720447745E+000  1.036780818620770E+000  1.049821915906050E+000 
 1.063027050001569E+000  1.076398284236399E+000  1.089937707893088E+000  1.103647436534132E+000 
 1.117529612332521E+000  1.131586404406469E+000  1.145820009158338E+000  1.160232650617824E+000 
 1.174826580789484E+000  1.189604080004593E+000  1.204567457277470E+000  1.219719050666261E+000 
 1.235061227638255E+000  1.250596385439820E+000  1.266326951470967E+000  1.282255383664643E+000 
 1.298384170870787E+000  1.314715833245211E+000  1.331252922643392E+000  1.347998023019189E+000 
 1.364953750828606E+000  1.382122755438612E+000  1.399507719541104E+000  1.417111359572097E+000 
 1.434936426136156E+000  1.452985704436200E+000  1.471262014708687E+000  1.489768212664275E+000 
 1.508507189934051E+000  1.527481874521334E+000  1.546695231259197E+000  1.566150262273723E+000 
 1.585850007453084E+000  1.605797544922549E+000  1.625995991525425E+000  1.646448503310092E+000 
 1.667158276023130E+000  1.688128545608654E+000  1.709362588713956E+000  1.730863723201466E+000 
 1.752635308667196E+000  1.774680746965673E+000  1.797003482741477E+000  1.819607003967494E+000 
 1.842494842489896E+000  1.865670574580023E+000  1.889137821493167E+000  1.912900250034397E+000 
 1.936961573131524E+000  1.961325550415229E+000  1.985995988806533E+000  2.010976743111633E+000 
 2.036271716624204E+000  2.061884861735328E+000  2.087820180551032E+000  2.114081725517650E+000 
 2.140673600055016E+000  2.167599959197623E+000  2.194865010243873E+000  2.222473013413458E+000 
 2.250428282513045E+000  2.278735185610311E+000  2.307398145716447E+000  2.336421641477294E+000 
 2.365810207873104E+000  2.395568436927172E+000  2.425700978423336E+000  2.456212540632502E+000 
 2.487107891048349E+000  2.518391857132228E+000  2.550069327067492E+000  2.582145250523271E+000 
 2.614624639427856E+000  2.647512568751851E+000  2.680814177301114E+000  2.714534668519740E+000 
 2.748679311303090E+000  2.783253440821059E+000  2.818262459351733E+000  2.853711837125476E+000 
 2.889607113179692E+000  2.925953896224298E+000  2.962757865518083E+000  3.000024771756139E+000 
 3.037760437968374E+000  3.075970760429414E+000  3.114661709579886E+000  3.153839330959304E+000 
 3.193509746150726E+000  3.233679153737224E+000  3.274353830270465E+000  3.315540131251416E+000 
 3.357244492123388E+000  3.399473429277628E+000  3.442233541071468E+000  3.485531508859379E+000 
 3.529374098036925E+000  3.573768159097850E+000  3.618720628704529E+000  3.664238530771780E+000 
 3.710328977564415E+000  3.756999170808525E+000  3.804256402816740E+000  3.852108057627723E+000 
 3.900561612159878E+000  3.949624637379686E+000  3.999304799484667E+000  4.049609861101208E+000 
 4.100547682497550E+000  4.152126222811903E+000  4.204353541296136E+000  4.257237798575028E+000 
 4.310787257921358E+000  4.365010286547111E+000  4.419915356910812E+000  4.475511048041417E+000 
 4.531806046878784E+000  4.588809149631000E+000  4.646529263148858E+000  4.704975406317512E+000 
 4.764156711465750E+000  4.824082425792914E+000  4.884761912813774E+000  4.946204653821644E+000 
 5.008420249369796E+000  5.071418420771622E+000  5.135209011619584E+000  5.199801989323266E+000 
 5.265207446666869E+000  5.331435603386152E+000  5.398496807765353E+000  5.466401538254105E+000 
 5.535160405104679E+000  5.604784152029932E+000  5.675283657881953E+000  5.746669938351971E+000 
 5.818954147691557E+000  5.892147580455465E+000  5.966261673266496E+000  6.041308006602419E+000 
 6.117298306605510E+000  6.194244446914758E+000  6.272158450521115E+000  6.351052491646182E+000 
 6.430938897644374E+000  6.511830150929169E+000  6.593738890923481E+000  6.676677916034554E+000 
 6.760660185653824E+000  6.845698822181764E+000  6.931807113078349E+000  7.018998512939238E+000 
 7.107286645598023E+000  7.196685306255084E+000  7.287208463633005E+000  7.378870262159308E+000 
 7.471685024176514E+000  7.565667252179996E+000  7.660831631084115E+000  7.757193030516660E+000 
 7.854766507142355E+000  7.953567307015452E+000  8.053610867961913E+000  8.154912821991708E+000 
 8.257488997741223E+000  8.361355422946627E+000  8.466528326948190E+000  8.573024143226110E+000 
 8.680859511968377E+000  8.790051282670721E+000  8.900616516769478E+000  9.012572490307443E+000 
 9.125936696633222E+000  9.240726849134731E+000  9.356960884006805E+000  9.474656963053889E+000 
 9.593833476527806E+000  9.714509046001220E+000  9.836702527277412E+000  9.960433013336399E+000 
 1.008571983731838E+001  1.021258257554451E+001  1.034104105057572E+001  1.047111533431011E+001 
 1.060282575111911E+001  1.073619288102335E+001  1.087123756290822E+001  1.100798089777997E+001 
 1.114644425206294E+001  1.128664926093789E+001  1.142861783172272E+001  1.157237214729549E+001 
 1.171793466956042E+001  1.186532814295782E+001  1.201457559801773E+001  1.216570035495868E+001 
 1.231872602733142E+001  1.247367652570855E+001  1.263057606142074E+001  1.278944915033961E+001 
 1.295032061670855E+001  1.311321559702151E+001  1.327815954395053E+001  1.344517823032293E+001 
 1.361429775314824E+001  1.378554453769597E+001  1.395894534162465E+001  1.413452725916263E+001 
 1.431231772534180E+001  1.449234452028416E+001  1.467463577354272E+001  1.485921996849671E+001 
 1.504612594680206E+001  1.523538291289820E+001  1.542702043857109E+001  1.562106846757402E+001 
 1.581755732030635E+001  1.601651769855102E+001  1.621798069027198E+001  1.642197777447149E+001 
 1.662854082610905E+001  1.683770212108174E+001  1.704949434126739E+001  1.726395057963136E+001 
 1.748110434539715E+001  1.770098956928248E+001  1.792364060880100E+001  1.814909225363053E+001 
 1.837737973104935E+001  1.860853871144018E+001  1.884260531386403E+001  1.907961611170379E+001 
 1.931960813837875E+001  1.956261889313141E+001  1.980868634688655E+001  2.005784894818447E+001 
 2.031014562918860E+001  2.056561581176856E+001  2.082429941366022E+001  2.108623685470259E+001 
 2.135146906315379E+001  2.162003748208604E+001  2.189198407586115E+001  2.216735133668773E+001 
 2.244618229126046E+001  2.272852050748331E+001  2.301441010127703E+001  2.330389574347221E+001 